/*--------------------------------*- C++ -*----------------------------------*\
  =========                 |
  \\      /  F ield         | OpenFOAM: The Open Source CFD Toolbox
   \\    /   O peration     | Website:  https://openfoam.org
    \\  /    A nd           | Version:  7
     \\/     M anipulation  |
\*---------------------------------------------------------------------------*/
FoamFile
{
    version     2.0;
    format      ascii;
    class       volScalarField;
    location    "2000/solid";
    object      T;
}
// * * * * * * * * * * * * * * * * * * * * * * * * * * * * * * * * * * * * * //

dimensions      [0 0 0 1 0 0 0];

internalField   nonuniform List<scalar> 
6240
(
316.2846
331.32029
331.32421
329.31013
329.3139
329.69033
329.69406
330.16769
330.17143
330.02344
330.02714
330.13424
330.13794
330.44386
330.44758
330.2083
330.21199
330.26529
330.26899
330.58181
330.58556
330.38043
330.38416
330.41682
330.42058
314.95876
316.30231
331.3426
331.34612
329.33109
329.33457
329.71155
329.71496
330.18925
330.19265
330.0449
330.04824
330.15577
330.15912
330.46561
330.46898
330.22988
330.23321
330.2869
330.29025
330.60365
330.60703
330.40211
330.40548
330.4385
330.44192
314.97499
316.33068
331.37353
331.37673
329.36013
329.36339
329.74096
329.7441
330.21916
330.22225
330.07464
330.07766
330.18563
330.18864
330.4958
330.49882
330.2598
330.26279
330.31688
330.31989
330.63396
330.63699
330.43217
330.43521
330.46853
330.47164
315.00081
316.36809
331.41158
331.41453
329.39597
329.39903
329.77722
329.78013
330.25602
330.25884
330.11127
330.11401
330.22239
330.22512
330.53297
330.53569
330.29663
330.29932
330.35378
330.35649
330.67126
330.674
330.46916
330.4719
330.50547
330.5083
315.03467
316.41311
331.45544
331.45817
329.43747
329.44036
329.81915
329.82185
330.29862
330.30121
330.15358
330.15607
330.26484
330.26732
330.57589
330.57835
330.33915
330.34158
330.39637
330.39882
330.71432
330.7168
330.51183
330.51433
330.54805
330.55065
315.07524
316.46458
331.50402
331.50655
329.48365
329.48637
329.86576
329.86827
330.34594
330.34832
330.20054
330.20282
330.31195
330.31421
330.62351
330.62575
330.38632
330.38853
330.4436
330.44584
330.76207
330.76434
330.55914
330.56143
330.59521
330.5976
315.12139
316.52148
331.55643
331.55877
329.53369
329.53623
329.91619
329.91852
330.3971
330.3993
330.25128
330.25338
330.36284
330.36492
330.67495
330.677
330.43725
330.43928
330.49461
330.49667
330.81364
330.81572
330.61021
330.61231
330.64607
330.64828
315.17218
316.58297
331.61191
331.61408
329.58686
329.58924
329.96972
329.97189
330.45138
330.45342
330.30509
330.30704
330.41679
330.41871
330.72947
330.73137
330.49123
330.49311
330.54866
330.55056
330.86828
330.8702
330.66431
330.66625
330.6999
330.70194
315.22681
316.64833
331.66985
331.67186
329.64258
329.64481
330.02575
330.02778
330.50816
330.51006
330.36135
330.36316
330.47318
330.47497
330.78647
330.78823
330.54764
330.54939
330.60514
330.60691
330.92537
330.92716
330.72081
330.72261
330.75608
330.75798
315.28461
316.71696
331.72975
331.73162
329.70033
329.70241
330.08376
330.08566
330.56692
330.5687
330.41954
330.42123
330.5315
330.53318
330.84541
330.84707
330.60597
330.6076
330.66353
330.66519
330.9844
330.98607
330.77921
330.78089
330.8141
330.81587
315.34501
316.78834
331.79119
331.79294
329.75967
329.76162
330.14332
330.1451
330.62723
330.6289
330.47923
330.48082
330.59132
330.5929
330.90588
330.90744
330.66578
330.66731
330.72341
330.72497
331.04494
331.04651
330.83906
330.84065
330.87353
330.8752
315.40752
316.86201
331.85382
331.85546
329.82024
329.82206
330.20405
330.20573
330.68871
330.69029
330.54006
330.54156
330.65227
330.65376
330.96749
330.96896
330.7267
330.72816
330.7844
330.78587
331.1066
331.10809
330.90002
330.90151
330.93402
330.93559
315.47173
316.9376
331.91734
331.91888
329.88171
329.88343
330.26565
330.26723
330.75106
330.75255
330.6017
330.60313
330.71403
330.71545
331.02994
331.03134
330.78843
330.78982
330.84619
330.8476
331.1691
331.17051
330.96176
330.96318
330.99527
330.99675
315.53729
317.01477
331.98151
331.98296
329.94381
329.94543
330.32783
330.32933
330.814
330.81542
330.6639
330.66527
330.77635
330.77771
331.09296
331.0943
330.85071
330.85203
330.90852
330.90987
331.23215
331.23351
331.02403
331.02539
331.057
331.05841
315.60389
317.09321
332.0461
332.04747
330.00631
330.00784
330.39037
330.39179
330.8773
330.87865
330.72643
330.72773
330.83899
330.84029
331.15632
331.15761
330.91329
330.91457
330.97117
330.97247
331.29555
331.29685
331.0866
331.0879
331.11902
331.12036
315.67128
317.17268
332.11093
332.11223
330.06899
330.07044
330.45306
330.45442
330.94076
330.94206
330.78908
330.79034
330.90175
330.90301
331.21984
331.22108
330.976
330.97723
331.03394
331.03519
331.35908
331.36034
331.14928
331.15054
331.18112
331.18241
315.73923
317.25293
332.17583
332.17706
330.13167
330.13306
330.51573
330.51704
331.00421
331.00547
330.85169
330.8529
330.96448
330.9657
331.28333
331.28454
331.03866
331.03985
331.09666
331.09787
331.42259
331.42381
331.21191
331.21312
331.24314
331.24439
315.80752
317.33376
332.24066
332.24183
330.19421
330.19553
330.57823
330.57949
331.0675
331.06872
330.9141
330.91528
331.02701
331.02819
331.34665
331.34782
331.10112
331.10228
331.15918
331.16036
331.48593
331.48711
331.27433
331.2755
331.30495
331.30615
315.876
317.41497
332.30528
332.3064
330.25646
330.25772
330.64042
330.64164
331.1305
331.13168
330.97619
330.97734
331.08922
331.09037
331.40967
331.41082
331.16325
331.16438
331.22138
331.22253
331.54896
331.55011
331.33641
331.33755
331.3664
331.36757
315.94449
317.49637
332.36958
332.37066
330.31829
330.31951
330.70218
330.70336
331.19309
331.19423
331.03784
331.03895
331.15099
331.15211
331.47228
331.47339
331.22494
331.22604
331.28313
331.28425
331.61158
331.61269
331.39805
331.39916
331.4274
331.42854
316.01286
317.57782
332.43346
332.43449
330.3796
330.38077
330.76341
330.76455
331.25516
331.25627
331.09894
331.10002
331.21221
331.2133
331.53436
331.53545
331.28608
331.28716
331.34434
331.34543
331.67367
331.67476
331.45913
331.46022
331.48785
331.48895
316.08098
317.65916
332.49681
332.4978
330.44028
330.44142
330.824
330.82511
331.31661
331.3177
331.1594
331.16046
331.27279
331.27386
331.59583
331.5969
331.34658
331.34763
331.40491
331.40597
331.73514
331.73621
331.51957
331.52063
331.54764
331.54871
316.14872
317.74024
332.55955
332.5605
330.50024
330.50135
330.88387
330.88495
331.37736
331.37843
331.21912
331.22016
331.33265
331.3337
331.6566
331.65765
331.40635
331.40738
331.46475
331.46579
331.79592
331.79697
331.57928
331.58032
331.6067
331.60775
316.21599
317.82093
332.62159
332.62251
330.55941
330.56048
330.94293
330.94399
331.43734
331.43838
331.27804
331.27906
331.3917
331.39273
331.71659
331.71762
331.46531
331.46632
331.52378
331.52481
331.85592
331.85695
331.63819
331.63921
331.66495
331.66598
316.28267
317.90109
332.68285
332.68373
330.6177
330.61875
331.00112
331.00216
331.49646
331.49748
331.33608
331.33708
331.44988
331.45089
331.77573
331.77674
331.5234
331.52439
331.58194
331.58295
331.91506
331.91607
331.69621
331.69722
331.72232
331.72333
316.34869
317.98062
332.74325
332.7441
330.67505
330.67607
331.05837
331.05939
331.55466
331.55566
331.39318
331.39416
331.50711
331.50811
331.83394
331.83494
331.58054
331.58151
331.63916
331.64015
331.97329
331.97429
331.75329
331.75428
331.77875
331.77974
316.41394
318.05939
332.80273
332.80356
330.73139
330.73239
331.11461
331.1156
331.61188
331.61286
331.44926
331.45023
331.56334
331.56432
331.89118
331.89216
331.63667
331.63763
331.69537
331.69635
332.03054
332.03152
331.80937
331.81034
331.83417
331.83515
316.47834
318.13728
332.86122
332.86202
330.78666
330.78764
331.16978
331.17076
331.66805
331.66902
331.50427
331.50522
331.6185
331.61947
331.94738
331.94834
331.69173
331.69268
331.75051
331.75148
332.08675
332.08771
331.86437
331.86533
331.88854
331.88949
316.54182
318.21419
332.91866
332.91943
330.8408
330.84176
331.22382
331.22479
331.72312
331.72408
331.55816
331.5591
331.67255
331.6735
332.00248
332.00343
331.74567
331.74661
331.80454
331.80549
332.14186
332.14281
331.91826
331.9192
331.94178
331.94272
316.6043
318.29002
332.97498
332.97572
330.89376
330.89471
331.27669
331.27764
331.77705
331.77799
331.61087
331.61179
331.72541
331.72635
332.05643
332.05737
331.79844
331.79936
331.85739
331.85833
332.19583
332.19677
331.97097
331.97189
331.99387
331.99479
316.66571
318.36466
333.03012
333.03084
330.94549
330.94642
331.32833
331.32927
331.82977
331.8307
331.66235
331.66326
331.77706
331.77799
332.10918
332.11011
331.84998
331.85089
331.90902
331.90995
332.2486
332.24953
332.02245
332.02337
332.04473
332.04564
316.72598
318.43801
333.08403
333.08473
330.99594
330.99685
331.3787
331.37962
331.88124
331.88215
331.71256
331.71346
331.82743
331.82835
332.16068
332.1616
331.90025
331.90115
331.95938
331.9603
332.30012
332.30104
332.07267
332.07357
332.09434
332.09523
316.78505
318.50998
333.13666
333.13733
331.04506
331.04596
331.42774
331.42866
331.93141
331.93232
331.76144
331.76233
331.87649
331.87739
332.2109
332.2118
331.9492
331.95009
332.00843
332.00933
332.35035
332.35126
332.12156
332.12245
332.14263
332.14352
316.84284
318.58047
333.18794
333.18859
331.09281
331.0937
331.47542
331.47632
331.98024
331.98114
331.80896
331.80984
331.92418
331.92507
332.25977
332.26066
331.99679
331.99767
332.05611
332.057
332.39925
332.40014
332.16909
332.16997
332.18958
332.19045
316.89929
318.64939
333.23783
333.23847
331.13915
331.14002
331.52169
331.52258
332.02769
332.02858
331.85506
331.85593
331.97047
331.97135
332.30726
332.30814
332.04297
332.04383
332.10238
332.10327
332.44677
332.44765
332.21521
332.21608
332.23514
332.236
316.95435
318.71666
333.28629
333.2869
331.18403
331.18489
331.56651
331.56739
332.07372
332.07459
331.89972
331.90058
332.01531
332.01618
332.35333
332.3542
332.0877
332.08855
332.14721
332.14809
332.49286
332.49373
332.25989
332.26075
332.27926
332.28011
317.00795
318.78218
333.33325
333.33384
331.22741
331.22826
331.60984
331.61071
332.11827
332.11914
331.94289
331.94373
332.05866
332.05952
332.39794
332.3988
332.13094
332.13179
332.19056
332.19142
332.53749
332.53835
332.30308
332.30393
332.32191
332.32275
317.06004
318.84586
333.37867
333.37925
331.26926
331.2701
331.65164
331.6525
332.16133
332.16218
331.98452
331.98536
332.10049
332.10134
332.44104
332.44189
332.17265
332.17349
332.23238
332.23323
332.58062
332.58147
332.34474
332.34558
332.36306
332.36388
317.11056
318.90764
333.42252
333.42307
331.30953
331.31036
331.69187
331.69272
332.20284
332.20368
332.02459
332.02542
332.14075
332.14159
332.4826
332.48344
332.2128
332.21363
332.27263
332.27347
332.62221
332.62306
332.38483
332.38566
332.40265
332.40347
317.15944
318.96741
333.46473
333.46527
331.34819
331.34902
331.7305
331.73134
332.24277
332.24361
332.06305
332.06387
332.17941
332.18024
332.52259
332.52342
332.25134
332.25216
332.31128
332.31211
332.66223
332.66306
332.42331
332.42413
332.44067
332.44147
317.20665
319.0251
333.50527
333.50579
331.38521
331.38602
331.76748
331.76832
332.28108
332.28191
332.09986
332.10068
332.21642
332.21725
332.56095
332.56178
332.28824
332.28905
332.34829
332.34911
332.70062
332.70145
332.46016
332.46097
332.47707
332.47786
317.25212
319.08063
333.5441
333.5446
331.42054
331.42135
331.80279
331.80362
332.31774
332.31856
332.135
332.1358
332.25177
332.25258
332.59767
332.59849
332.32346
332.32426
332.38362
332.38444
332.73737
332.73818
332.49533
332.49613
332.51181
332.5126
317.2958
319.13393
333.58116
333.58165
331.45416
331.45495
331.83639
331.83721
332.35272
332.35353
332.16843
332.16922
332.2854
332.28621
332.6327
332.63351
332.35697
332.35776
332.41725
332.41805
332.77243
332.77323
332.52878
332.52957
332.54487
332.54564
317.33764
319.1849
333.61643
333.6169
331.48602
331.48681
331.86824
331.86905
332.38597
332.38677
332.2001
332.20088
332.31729
332.31809
332.66601
332.6668
332.38873
332.38952
332.44912
332.44992
332.80577
332.80656
332.56048
332.56127
332.57621
332.57697
317.37758
319.23348
333.64986
333.65031
331.5161
331.51688
331.89831
331.89911
332.41746
332.41825
332.22999
332.23077
332.34739
332.34819
332.69756
332.69835
332.41871
332.41949
332.47922
332.48001
332.83735
332.83814
332.5904
332.59118
332.60579
332.60655
317.41557
319.27959
333.6814
333.68184
331.54436
331.54513
331.92657
331.92736
332.44716
332.44795
332.25806
332.25883
332.37569
332.37647
332.72732
332.7281
332.44687
332.44764
332.5075
332.50828
332.86714
332.86792
332.6185
332.61927
332.63359
332.63434
317.45156
319.32315
333.71103
333.71145
331.57076
331.57153
331.95298
331.95376
332.47504
332.47582
332.28428
332.28504
332.40213
332.40291
332.75525
332.75602
332.47319
332.47394
332.53394
332.53471
332.8951
332.89587
332.64475
332.64551
332.65958
332.66031
317.4855
319.3641
333.7387
333.73911
331.59529
331.59604
331.97751
331.97829
332.50106
332.50183
332.30862
332.30937
332.42669
332.42746
332.78133
332.78209
332.49761
332.49836
332.55849
332.55925
332.92121
332.92197
332.66911
332.66986
332.68371
332.68444
317.51735
319.40235
333.76436
333.76476
331.61789
331.61864
332.00013
332.0009
332.52519
332.52595
332.33104
332.33179
332.44934
332.4501
332.80552
332.80627
332.52012
332.52086
332.58112
332.58188
332.94542
332.94618
332.69155
332.6923
332.70597
332.70668
317.54704
319.43783
333.788
333.78838
331.63855
331.63929
332.02081
332.02157
332.5474
332.54816
332.35151
332.35225
332.47005
332.4708
332.82778
332.82853
332.54068
332.54142
332.60181
332.60256
332.96771
332.96846
332.71205
332.71278
332.72631
332.72702
317.57453
319.47048
333.80956
333.80993
331.65723
331.65796
332.03951
332.04026
332.56766
332.5684
332.37
332.37073
332.48877
332.48951
332.84809
332.84883
332.55926
332.55999
332.62052
332.62126
332.98805
332.98879
332.73055
332.73128
332.74471
332.74541
317.59977
319.50021
333.82901
333.82937
331.67389
331.67461
332.05621
332.05695
332.58593
332.58667
332.38648
332.38721
332.50549
332.50622
332.86641
332.86714
332.57583
332.57655
332.63722
332.63795
333.0064
333.00713
332.74704
332.74777
332.76115
332.76183
317.62271
319.52697
333.84632
333.84666
331.68851
331.68923
332.07088
332.0716
332.60219
332.60291
332.40091
332.40164
332.52017
332.52089
332.88271
332.88343
332.59035
332.59107
332.65188
332.65259
333.02272
333.02345
332.76148
332.76221
332.77558
332.77625
317.6433
319.55067
333.86145
333.86178
331.70106
331.70178
332.08349
332.0842
332.61639
332.61711
332.41327
332.41401
332.53279
332.53349
332.89696
332.89768
332.6028
332.60353
332.66448
332.66518
333.03699
333.03771
332.77385
332.77458
332.788
332.78865
317.66149
319.57125
333.87436
333.87467
331.71152
331.71224
332.09403
332.09472
332.62851
332.62923
332.42354
332.42429
332.54334
332.54402
332.90913
332.90983
332.61316
332.6139
332.675
332.67568
333.04918
333.04989
332.78413
332.78487
332.79838
332.79901
317.67722
319.58864
333.88501
333.88532
331.71987
331.7206
332.10249
332.10315
332.63852
332.63923
332.43171
332.43248
332.55179
332.55244
332.91917
332.91987
332.62141
332.62218
332.68343
332.68408
333.05925
333.05995
332.79229
332.79306
332.8067
332.80731
317.69046
319.60277
333.89338
333.89368
331.72611
331.72686
332.10887
332.10949
332.64639
332.64708
332.43777
332.43858
332.55816
332.55877
332.92707
332.92776
332.62755
332.62836
332.68976
332.69037
333.06716
333.06785
332.79835
332.79915
332.81298
332.81354
317.70115
319.61357
333.89943
333.89972
331.73024
331.73102
332.11318
332.11374
332.65207
332.65276
332.44173
332.44259
332.56244
332.563
332.93279
332.93347
332.63158
332.63245
332.69401
332.69457
333.07289
333.07357
332.8023
332.80316
332.8172
332.81772
317.70924
319.62096
333.90312
333.90342
331.7323
331.73313
332.11545
332.11593
332.65554
332.65621
332.44362
332.44457
332.56467
332.56515
332.93628
332.93695
332.63353
332.63449
332.6962
332.69669
333.0764
333.07707
332.80419
332.80513
332.81941
332.81985
317.71468
319.62489
333.90444
333.90473
331.73234
331.73323
332.11577
332.1161
332.65675
332.6574
332.4435
332.44457
332.56492
332.56528
332.93751
332.93816
332.63345
332.63454
332.69641
332.69679
333.07764
333.0783
332.80407
332.80512
332.81966
332.81998
317.7174
316.29201
331.33392
331.33041
329.32304
329.31977
329.70334
329.69998
330.18087
330.17742
330.03655
330.03308
330.14738
330.14391
330.45712
330.45361
330.22146
330.21796
330.27848
330.27498
330.59513
330.59161
330.39366
330.39017
330.43007
330.42662
314.96561
316.31528
331.36036
331.3573
329.34791
329.34507
329.72851
329.72555
330.20645
330.20339
330.06198
330.05889
330.17291
330.16981
330.48292
330.47978
330.24704
330.24391
330.3041
330.30099
330.62103
330.61789
330.41936
330.41626
330.45577
330.45274
314.98686
316.34836
331.39471
331.39208
329.38025
329.37782
329.76122
329.75864
330.23969
330.23699
330.09501
330.09227
330.20606
330.20331
330.51644
330.51364
330.28026
330.27746
330.33738
330.33461
330.65467
330.65189
330.45273
330.44999
330.48911
330.48647
315.0169
316.38974
331.43555
331.43328
329.41883
329.41675
329.80021
329.79795
330.27929
330.27691
330.13435
330.1319
330.24554
330.24307
330.55634
330.55384
330.31979
330.31729
330.37698
330.3745
330.69472
330.69223
330.49243
330.48999
330.52874
330.52642
315.05428
316.43812
331.48167
331.47969
329.46258
329.46078
329.84438
329.84238
330.32414
330.32201
330.17887
330.17667
330.2902
330.28798
330.60149
330.59923
330.36452
330.36225
330.42178
330.41954
330.74
330.73777
330.5373
330.53512
330.5735
330.57144
315.09777
316.49242
331.53206
331.53031
329.5106
329.50902
329.8928
329.89102
330.37329
330.37136
330.22762
330.22563
330.3391
330.33708
330.65092
330.64887
330.41347
330.41141
330.4708
330.46877
330.78956
330.78754
330.58639
330.58441
330.62241
330.62057
315.14635
316.55171
331.58591
331.58432
329.56212
329.5607
329.9447
329.94308
330.42592
330.42416
330.27982
330.27799
330.39143
330.38958
330.70382
330.70193
330.46584
330.46395
330.52325
330.52138
330.84258
330.84072
330.63889
330.63708
330.67467
330.67299
315.19916
316.61522
331.64254
331.64106
329.61649
329.61518
329.99941
329.99791
330.48137
330.47975
330.33478
330.33308
330.44653
330.44482
330.75951
330.75776
330.52096
330.51921
330.57844
330.57671
330.89837
330.89665
330.69411
330.69244
330.72959
330.72804
315.25545
316.68229
331.70139
331.69999
329.67315
329.67192
330.05636
330.05496
330.53908
330.53756
330.39194
330.39036
330.50383
330.50223
330.81741
330.81578
330.57827
330.57663
330.63581
330.6342
330.95637
330.95476
330.7515
330.74993
330.78663
330.78517
315.31461
316.75235
331.76199
331.76065
329.73162
329.73046
330.11508
330.11376
330.59856
330.59712
330.45083
330.44934
330.56284
330.56134
330.87707
330.87553
330.63728
330.63574
330.69489
330.69338
331.0161
331.01459
330.81057
330.80909
330.84529
330.84392
315.37611
316.82493
331.82397
331.82267
329.79152
329.7904
330.17517
330.17391
330.6594
330.65804
330.51104
330.50962
330.62318
330.62176
330.93806
330.93661
330.69761
330.69615
330.75528
330.75385
331.07715
331.07572
330.87093
330.86953
330.9052
330.90389
315.43952
316.89961
331.88699
331.88573
329.85248
329.85139
330.23628
330.23507
330.72127
330.71997
330.57223
330.57088
330.6845
330.68314
331.00005
330.99867
330.7589
330.75751
330.81663
330.81527
331.13919
331.13783
330.93224
330.9309
330.96602
330.96476
315.50444
316.97603
331.95079
331.94955
329.91421
329.91315
330.29813
330.29695
330.78387
330.78262
330.63412
330.63282
330.7465
330.7452
331.06275
331.06143
330.82087
330.81953
330.87866
330.87735
331.20194
331.20062
330.99421
330.99292
331.02748
331.02626
315.57056
317.05388
332.01513
332.0139
329.97646
329.97542
330.36045
330.35931
330.84696
330.84574
330.69645
330.6952
330.80895
330.8077
331.12592
331.12464
330.88327
330.88199
330.94113
330.93987
331.26513
331.26387
331.0566
331.05535
331.08932
331.08813
315.63758
317.13287
332.0798
332.07859
330.03901
330.03798
330.42303
330.42192
330.91031
330.90913
330.75901
330.7578
330.87163
330.87042
331.18933
331.1881
330.94589
330.94465
331.00381
331.00259
331.32857
331.32735
331.1192
331.11799
331.15135
331.15019
315.70527
317.21276
332.14463
332.14342
330.10166
330.10064
330.48568
330.48459
330.97374
330.97259
330.82162
330.82044
330.93435
330.93318
331.25281
331.25162
331.00855
331.00735
331.06653
331.06535
331.39207
331.39089
331.18183
331.18066
331.21338
331.21225
315.77342
317.29333
332.20946
332.20827
330.16424
330.16323
330.54824
330.54717
331.03709
331.03597
330.88411
330.88296
330.99696
330.99582
331.3162
331.31504
331.0711
331.06993
331.12914
331.12799
331.45548
331.45432
331.24433
331.24319
331.27527
331.27417
315.84183
317.37437
332.27416
332.27297
330.2266
330.2256
330.61056
330.60951
331.10022
331.09912
330.94635
330.94523
331.05931
331.0582
331.37936
331.37823
331.13338
331.13224
331.19148
331.19036
331.51864
331.51752
331.30656
331.30545
331.33689
331.3358
315.91033
317.4557
332.3386
332.33741
330.28861
330.28762
330.67252
330.67149
331.16299
331.16192
331.0082
331.0071
331.12129
331.1202
331.44216
331.44105
331.19527
331.19416
331.25344
331.25235
331.58145
331.58035
331.36841
331.36732
331.3981
331.39703
315.97878
317.53715
332.40267
332.40149
330.35016
330.34917
330.73399
330.73297
331.22531
331.22425
331.06956
331.06848
331.18277
331.1817
331.50449
331.50341
331.25667
331.25559
331.31491
331.31384
331.64379
331.64271
331.42976
331.42868
331.4588
331.45775
316.04704
317.61857
332.46626
332.46508
330.41113
330.41015
330.79488
330.79388
331.28705
331.28601
331.13032
331.12927
331.24366
331.24261
331.56626
331.56519
331.31748
331.31641
331.37578
331.37473
331.70556
331.7045
331.49051
331.48945
331.5189
331.51787
316.11499
317.6998
332.52929
332.52811
330.47144
330.47047
330.8551
330.85411
331.34814
331.34712
331.1904
331.18937
331.30387
331.30284
331.62736
331.62632
331.3776
331.37656
331.43597
331.43494
331.76668
331.76564
331.55057
331.54954
331.57832
331.57729
316.18251
317.7807
332.59165
332.59049
330.53099
330.53002
330.91455
330.91357
331.4085
331.40749
331.24972
331.2487
331.36331
331.3623
331.68773
331.68671
331.43696
331.43593
331.4954
331.49439
331.82706
331.82603
331.60987
331.60885
331.63696
331.63595
316.2495
317.86115
332.65329
332.65212
330.5897
330.58875
330.97317
330.9722
331.46803
331.46704
331.30819
331.30718
331.42192
331.42093
331.74729
331.74628
331.49547
331.49446
331.55399
331.55299
331.88662
331.88561
331.66832
331.66732
331.69476
331.69376
316.31586
317.94101
332.7141
332.71294
330.64751
330.64656
331.03088
331.02992
331.52668
331.5257
331.36574
331.36475
331.47962
331.47864
331.80595
331.80496
331.55308
331.55208
331.61167
331.61069
331.9453
331.9443
331.72587
331.72488
331.75165
331.75067
316.38151
318.02018
332.77403
332.77288
330.70434
330.7034
331.08761
331.08666
331.58438
331.58341
331.42232
331.42135
331.53634
331.53538
331.86367
331.86269
331.6097
331.60872
331.66837
331.66741
332.00303
332.00205
331.78244
331.78146
331.80757
331.8066
316.44635
318.09852
332.833
332.83185
330.76014
330.75921
331.1433
331.14237
331.64107
331.64011
331.47786
331.4769
331.59203
331.59108
331.92038
331.91942
331.6653
331.66433
331.72404
331.72309
332.05975
332.05878
331.83797
331.83701
331.86245
331.86149
316.51031
318.17594
332.89095
332.8898
330.81483
330.81391
331.1979
331.19698
331.69669
331.69574
331.5323
331.53136
331.64662
331.64569
331.97602
331.97507
331.71979
331.71884
331.77862
331.77768
332.1154
332.11445
331.89241
331.89146
331.91625
331.9153
316.5733
318.25233
332.94781
332.94667
330.86838
330.86746
331.25135
331.25044
331.75118
331.75025
331.5856
331.58466
331.70007
331.69915
332.03054
332.0296
331.77314
331.7722
331.83206
331.83113
332.16994
332.169
331.9457
331.94476
331.96891
331.96797
316.63526
318.32758
333.00353
333.00239
330.92071
330.91981
331.3036
331.3027
331.80449
331.80357
331.63769
331.63676
331.75232
331.75141
332.08389
332.08296
331.82529
331.82436
331.88429
331.88338
332.2233
332.22237
331.99779
331.99686
332.02038
332.01944
316.69611
318.40159
333.05805
333.05691
330.97179
330.9709
331.3546
331.35371
331.85658
331.85567
331.68852
331.68761
331.80332
331.80242
332.13601
332.13509
331.87619
331.87527
331.93528
331.93438
332.27544
332.27452
332.04863
332.04772
332.0706
332.06968
316.75579
318.47426
333.1113
333.11018
331.02157
331.02068
331.4043
331.40342
331.9074
331.9065
331.73806
331.73716
331.85303
331.85214
332.18686
332.18596
331.92579
331.92489
331.98498
331.98409
332.32631
332.32541
332.09818
332.09728
332.11955
332.11863
316.81423
318.54551
333.16325
333.16212
331.07
331.06912
331.45265
331.45178
331.95689
331.95601
331.78626
331.78537
331.9014
331.90052
332.2364
332.2355
331.97405
331.97316
332.03333
332.03245
332.37587
332.37498
332.14639
332.14549
332.16716
332.16626
316.87136
318.61523
333.21383
333.21271
331.11704
331.11617
331.49962
331.49876
332.00503
332.00415
331.83306
331.83218
331.94838
331.94752
332.28458
332.28369
332.02093
332.02005
332.08031
332.07944
332.42407
332.42319
332.19321
332.19232
332.21341
332.21251
316.92713
318.68334
333.26299
333.26187
331.16264
331.16178
331.54516
331.54431
332.05176
332.05089
331.87844
331.87757
331.99394
331.99308
332.33135
332.33048
332.06638
332.06551
332.12586
332.125
332.47087
332.47
332.2386
332.23773
332.25824
332.25735
316.98147
318.74975
333.31069
333.30957
331.20676
331.20591
331.58923
331.58839
332.09705
332.09619
331.92235
331.92149
332.03803
332.03719
332.37668
332.37582
332.11036
332.1095
332.16994
332.16909
332.51623
332.51536
332.28253
332.28167
332.30162
332.30074
317.03432
318.81436
333.35687
333.35576
331.24937
331.24853
331.63179
331.63096
332.14085
332.14
331.96474
331.96389
332.08062
332.07978
332.42053
332.41968
332.15283
332.15198
332.21251
332.21167
332.5601
332.55925
332.32495
332.32409
332.34352
332.34264
317.08563
318.87711
333.4015
333.40039
331.29043
331.28959
331.6728
331.67198
332.18313
332.18229
332.00559
332.00475
332.12166
332.12083
332.46286
332.46202
332.19376
332.19291
332.25354
332.25271
332.60246
332.60162
332.36582
332.36497
332.38388
332.38302
317.13535
318.93789
333.44451
333.44341
331.32989
331.32907
331.71222
331.71141
332.22384
332.22301
332.04485
332.04401
332.16111
332.16029
332.50363
332.5028
332.2331
332.23226
332.29299
332.29217
332.64326
332.64242
332.4051
332.40427
332.42268
332.42182
317.1834
318.99664
333.48588
333.48479
331.36773
331.36691
331.75003
331.74922
332.26296
332.26214
332.08248
332.08166
332.19895
332.19814
332.5428
332.54198
332.27081
332.26999
332.33082
332.33
332.68246
332.68163
332.44276
332.44194
332.45988
332.45903
317.22975
319.05327
333.52556
333.52447
331.4039
331.40309
331.78617
331.78537
332.30044
332.29963
332.11845
332.11764
332.23512
332.23432
332.58034
332.57952
332.30687
332.30605
332.36698
332.36618
332.72002
332.71921
332.47876
332.47795
332.49545
332.49461
317.27434
319.10769
333.56349
333.56241
331.43837
331.43756
331.82062
331.81983
332.33625
332.33545
332.15273
332.15192
332.26961
332.26881
332.61621
332.6154
332.34123
332.34042
332.40146
332.40067
332.75592
332.75511
332.51307
332.51226
332.52935
332.52851
317.3171
319.15984
333.59965
333.59857
331.4711
331.47031
331.85334
331.85256
332.37036
332.36957
332.18527
332.18448
332.30236
332.30158
332.65037
332.64957
332.37386
332.37306
332.43421
332.43342
332.79012
332.78932
332.54564
332.54484
332.56154
332.56071
317.358
319.20963
333.63399
333.63291
331.50207
331.50128
331.8843
331.88353
332.40273
332.40194
332.21605
332.21526
332.33336
332.33258
332.6828
332.68201
332.40473
332.40394
332.46519
332.46441
332.82257
332.82178
332.57645
332.57566
332.592
332.59117
317.39697
319.25698
333.66647
333.6654
331.53123
331.53045
331.91346
331.91269
332.43332
332.43254
332.24503
332.24425
332.36255
332.36178
332.71345
332.71266
332.4338
332.43301
332.49437
332.4936
332.85325
332.85247
332.60545
332.60467
332.62069
332.61987
317.43397
319.30183
333.69705
333.69598
331.55856
331.55779
331.94079
331.94003
332.46211
332.46134
332.27217
332.2714
332.38992
332.38916
332.74229
332.74152
332.46103
332.46025
332.52173
332.52097
332.88212
332.88135
332.63262
332.63185
332.64757
332.64676
317.46895
319.3441
333.72569
333.72462
331.58402
331.58326
331.96625
331.96551
332.48905
332.48829
332.29745
332.29668
332.41541
332.41466
332.76929
332.76853
332.48639
332.48563
332.54721
332.54646
332.90916
332.90839
332.65792
332.65716
332.67263
332.67182
317.50185
319.3837
333.75235
333.75129
331.60758
331.60683
331.98983
331.98909
332.51413
332.51337
332.32082
332.32007
332.43902
332.43827
332.79442
332.79366
332.50986
332.5091
332.5708
332.57006
332.93431
332.93356
332.68132
332.68057
332.69582
332.69502
317.53262
319.42058
333.77699
333.77594
331.62921
331.62846
332.01147
332.01074
332.53729
332.53655
332.34227
332.34152
332.46069
332.45995
332.81764
332.81689
332.53139
332.53064
332.59246
332.59172
332.95756
332.95681
332.70279
332.70204
332.71711
332.71632
317.56122
319.45466
333.79959
333.79854
331.64887
331.64813
332.03115
332.03043
332.55852
332.55779
332.36174
332.361
332.4804
332.47967
332.83892
332.83818
332.55096
332.55022
332.61215
332.61143
332.97887
332.97813
332.72228
332.72154
332.73648
332.73569
317.5876
319.48586
333.82009
333.81904
331.66654
331.66581
332.04885
332.04813
332.57778
332.57705
332.37922
332.37849
332.49812
332.49739
332.85823
332.8575
332.56853
332.56779
332.62985
332.62913
332.99821
332.99748
332.73978
332.73905
332.75389
332.75311
317.61169
319.51412
333.83846
333.83742
331.68218
331.68146
332.06453
332.06381
332.59504
332.59432
332.39468
332.39396
332.51381
332.51309
332.87554
332.87482
332.58407
332.58335
332.64553
332.64481
333.01554
333.01482
332.75524
332.75453
332.76932
332.76853
317.63346
319.53936
333.85467
333.85364
331.69576
331.69505
332.07816
332.07744
332.61027
332.60955
332.40807
332.40737
332.52746
332.52673
332.89081
332.8901
332.59755
332.59685
332.65915
332.65842
333.03083
333.03012
332.76865
332.76795
332.78274
332.78195
317.65286
319.56151
333.86868
333.86765
331.70727
331.70657
332.08973
332.08899
332.62343
332.62272
332.4194
332.41871
332.53903
332.53829
332.90402
332.90331
332.60896
332.60828
332.6707
332.66997
333.04406
333.04335
332.77998
332.77929
332.79413