/*--------------------------------*- C++ -*----------------------------------*\
  =========                 |
  \\      /  F ield         | OpenFOAM: The Open Source CFD Toolbox
   \\    /   O peration     | Website:  https://openfoam.org
    \\  /    A nd           | Version:  7
     \\/     M anipulation  |
\*---------------------------------------------------------------------------*/
FoamFile
{
    version     2.0;
    format      ascii;
    class       volScalarField;
    location    "50/fluid";
    object      alphat;
}
// * * * * * * * * * * * * * * * * * * * * * * * * * * * * * * * * * * * * * //

dimensions      [1 -1 -1 0 0 0 0];

internalField   nonuniform List<scalar> 
17240
(
1.6482144e-09
2.2168896e-09
2.2168908e-09
2.2168925e-09
2.2168948e-09
2.2168975e-09
2.2169006e-09
2.2169036e-09
2.216906e-09
2.2169072e-09
2.2169062e-09
2.2169021e-09
2.2168947e-09
2.2168849e-09
2.2168748e-09
2.2168677e-09
2.2168661e-09
2.2168707e-09
2.21688e-09
2.2168908e-09
2.2168995e-09
2.2169043e-09
2.2169052e-09
2.2169031e-09
2.2168997e-09
2.2168962e-09
2.2168932e-09
2.2168909e-09
2.2168894e-09
2.2168882e-09
2.2168868e-09
2.2168849e-09
2.2168821e-09
2.2168787e-09
2.2168754e-09
2.2168732e-09
2.2168734e-09
2.2168766e-09
2.2168827e-09
2.2168903e-09
2.2168976e-09
2.216903e-09
2.2169055e-09
2.2169052e-09
2.216903e-09
2.2168997e-09
2.2168962e-09
2.2168931e-09
2.2168904e-09
2.2168882e-09
2.2168862e-09
2.2168841e-09
2.216882e-09
2.2168797e-09
2.2168777e-09
2.2168766e-09
2.2168772e-09
2.2168798e-09
2.2168842e-09
2.2168894e-09
2.2168941e-09
2.2168971e-09
2.216898e-09
2.2168973e-09
2.2168959e-09
2.2168946e-09
1.1570403e-09
1.3409015e-09
1.3408987e-09
1.3408916e-09
1.3408786e-09
1.3408552e-09
1.3408122e-09
1.3407341e-09
1.3405992e-09
1.3403815e-09
1.3400577e-09
1.3396186e-09
1.3390832e-09
1.3385108e-09
1.3379985e-09
1.3376589e-09
1.3375801e-09
1.3377827e-09
1.338261e-09
1.3389155e-09
1.339615e-09
1.3402439e-09
1.3407319e-09
1.341056e-09
1.341228e-09
1.3412759e-09
1.3412301e-09
1.3411145e-09
1.3409436e-09
1.3407244e-09
1.3404508e-09
1.3401223e-09
1.3397465e-09
1.3393461e-09
1.3389636e-09
1.3386523e-09
1.3384679e-09
1.338458e-09
1.3386362e-09
1.3389772e-09
1.3394224e-09
1.3398982e-09
1.3403357e-09
1.3406867e-09
1.3409276e-09
1.341057e-09
1.3410865e-09
1.3410324e-09
1.3409096e-09
1.3407294e-09
1.3404989e-09
1.3402247e-09
1.3399172e-09
1.3395957e-09
1.3392914e-09
1.3390472e-09
1.3389106e-09
1.3389216e-09
1.3390981e-09
1.339426e-09
1.3398597e-09
1.3403338e-09
1.3407833e-09
1.3411565e-09
1.3414226e-09
1.3415684e-09
9.5628633e-10
1.0380726e-09
1.0380642e-09
1.0380457e-09
1.0380132e-09
1.0379552e-09
1.0378488e-09
1.0376553e-09
1.0373193e-09
1.0367745e-09
1.0359615e-09
1.0348568e-09
1.0335103e-09
1.0320722e-09
1.0307843e-09
1.0299237e-09
1.0297117e-09
1.030215e-09
1.0314106e-09
1.0330556e-09
1.0348241e-09
1.0364229e-09
1.037668e-09
1.0384957e-09
1.0389331e-09
1.0390527e-09
1.0389336e-09
1.0386387e-09
1.0382052e-09
1.0376526e-09
1.0369656e-09
1.0361409e-09
1.0351963e-09
1.0341877e-09
1.0332201e-09
1.0324268e-09
1.0319546e-09
1.0319201e-09
1.0323593e-09
1.0332111e-09
1.0343323e-09
1.0355385e-09
1.0366541e-09
1.0375526e-09
1.0381707e-09
1.0385029e-09
1.0385787e-09
1.038441e-09
1.0381296e-09
1.0376733e-09
1.0370911e-09
1.0363985e-09
1.0356227e-09
1.0348099e-09
1.0340374e-09
1.033415e-09
1.033062e-09
1.0330807e-09
1.0335186e-09
1.0343438e-09
1.0354442e-09
1.0366557e-09
1.0378092e-09
1.0387706e-09
1.0394583e-09
1.0398388e-09
8.5303854e-10
8.9727072e-10
8.9726185e-10
8.9723808e-10
8.9719385e-10
8.9711122e-10
8.9695228e-10
8.9665169e-10
8.9611419e-10
8.9522449e-10
8.9387812e-10
8.9203424e-10
8.8977933e-10
8.873689e-10
8.8520553e-10
8.8374189e-10
8.8335702e-10
8.8419634e-10
8.8619109e-10
8.8894746e-10
8.9192615e-10
8.9462918e-10
8.9673217e-10
8.9811817e-10
8.9883308e-10
8.9900641e-10
8.9878057e-10
8.9826795e-10
8.9753566e-10
8.966185e-10
8.9548208e-10
8.941153e-10
8.9254274e-10
8.9085536e-10
8.8922676e-10
8.8788085e-10
8.8708109e-10
8.8701746e-10
8.8774655e-10
8.8917052e-10
8.9105523e-10
8.9309404e-10
8.9498677e-10
8.9651078e-10
8.9755323e-10
8.9810334e-10
8.9821564e-10
8.9796849e-10
8.974336e-10
8.9666196e-10
8.956833e-10
8.9452586e-10
8.9322924e-10
8.9186656e-10
8.9056349e-10
8.8950999e-10
8.8890628e-10
8.8892528e-10
8.8965125e-10
8.9103721e-10
8.9290061e-10
8.9496472e-10
8.96937e-10
8.9858191e-10
8.9975638e-10
9.004014e-10
7.9200815e-10
8.1899464e-10
8.1901264e-10
8.1901197e-10
8.1898841e-10
8.1891861e-10
8.1874978e-10
8.183873e-10
8.1768924e-10
8.1648035e-10
8.1460005e-10
8.1198566e-10
8.0876848e-10
8.0532497e-10
8.0222625e-10
8.0008978e-10
7.9948781e-10
8.0072289e-10
8.0357495e-10
8.0750829e-10
8.1178003e-10
8.156673e-10
8.186732e-10
8.2061009e-10
8.2154941e-10
8.2169919e-10
8.2128697e-10
8.2048941e-10
8.1943072e-10
8.1815387e-10
8.1657263e-10
8.1465703e-10
8.1243224e-10
8.1002353e-10
8.0767823e-10
8.0572946e-10
8.045939e-10
8.0453761e-10
8.0560532e-10
8.0766037e-10
8.1038007e-10
8.1333099e-10
8.1607296e-10
8.1826769e-10
8.1974132e-10
8.2048073e-10
8.205779e-10
8.2016172e-10
8.1934725e-10
8.1821263e-10
8.1679938e-10
8.151576e-10
8.1331552e-10
8.1136959e-10
8.0950148e-10
8.0798693e-10
8.0713088e-10
8.0716748e-10
8.0821921e-10
8.1022672e-10
8.12937e-10
8.1595042e-10
8.1883029e-10
8.2121992e-10
8.2290505e-10
8.23792e-10
7.5342674e-10
7.7094614e-10
7.7109131e-10
7.7121453e-10
7.7132029e-10
7.7138166e-10
7.7133152e-10
7.7104271e-10
7.7031641e-10
7.6889912e-10
7.6655354e-10
7.6318609e-10
7.5898708e-10
7.5448087e-10
7.5040739e-10
7.47503e-10
7.4665348e-10
7.4852623e-10
7.5235319e-10
7.5746201e-10
7.6303089e-10
7.680944e-10
7.7192854e-10
7.7425187e-10
7.7518547e-10
7.750633e-10
7.7423959e-10
7.7298406e-10
7.7158965e-10
7.7002456e-10
7.6806567e-10
7.6564121e-10
7.6276403e-10
7.5959233e-10
7.5645813e-10
7.5383919e-10
7.5242814e-10
7.5257923e-10
7.5417499e-10
7.5702072e-10
7.6071125e-10
7.6467974e-10
7.6832567e-10
7.7117233e-10
7.7297918e-10
7.7374949e-10
7.7364616e-10
7.7288101e-10
7.7163359e-10
7.7001794e-10
7.6813323e-10
7.6600758e-10
7.6361238e-10
7.6105733e-10
7.5859194e-10
7.5661444e-10
7.5560985e-10
7.558088e-10
7.5734785e-10
7.601388e-10
7.6384405e-10
7.6791856e-10
7.7175563e-10
7.7486013e-10
7.7694994e-10
7.7788742e-10
7.296701e-10
7.4113578e-10
7.4167523e-10
7.4218875e-10
7.4270366e-10
7.4319081e-10
7.4356959e-10
7.4367738e-10
7.4324633e-10
7.4192096e-10
7.3936247e-10
7.3544984e-10
7.3048661e-10
7.2520336e-10
7.2042363e-10
7.1677868e-10
7.1594662e-10
7.194602e-10
7.2441823e-10
7.2993038e-10
7.3623001e-10
7.4203702e-10
7.4622454e-10
7.4834252e-10
7.4860349e-10
7.4756095e-10
7.4577106e-10
7.4367996e-10
7.4203792e-10
7.404036e-10
7.382758e-10
7.3549719e-10
7.3204545e-10
7.2811209e-10
7.2413906e-10
7.2079351e-10
7.1928334e-10
7.2029393e-10
7.2296226e-10
7.2696332e-10
7.3188071e-10
7.3698079e-10
7.4148417e-10
7.4476105e-10
7.4651873e-10
7.4683439e-10
7.4602131e-10
7.4444241e-10
7.4238038e-10
7.4003571e-10
7.3769582e-10
7.3514233e-10
7.3223396e-10
7.2907776e-10
7.2601213e-10
7.2361967e-10
7.2278521e-10
7.2367498e-10
7.262393e-10
7.3027954e-10
7.3529732e-10
7.4053419e-10
7.4520986e-10
7.4870757e-10
7.507233e-10
7.5108629e-10
7.1782339e-10
7.2522468e-10
7.2667113e-10
7.280771e-10
7.2950979e-10
7.3093231e-10
7.3224789e-10
7.3325804e-10
7.3362457e-10
7.3289452e-10
7.3068339e-10
7.2705422e-10
7.2285162e-10
7.193505e-10
7.1668459e-10
7.1378225e-10
7.1561406e-10
7.2687098e-10
7.3222379e-10
7.2981851e-10
7.3239825e-10
7.3669793e-10
7.3977442e-10
7.4035863e-10
7.3860509e-10
7.3538928e-10
7.3158753e-10
7.281111e-10
7.2648139e-10
7.251928e-10
7.2331331e-10
7.2054968e-10
7.1684618e-10
7.1248363e-10
7.080949e-10
7.0453372e-10
7.034698e-10
7.0702994e-10
7.1167754e-10
7.1685182e-10
7.2301655e-10
7.289773e-10
7.3386852e-10
7.369254e-10
7.3778865e-10
7.3666515e-10
7.341426e-10
7.3085459e-10
7.2725612e-10
7.2392353e-10
7.21217e-10
7.1839261e-10
7.1513767e-10
7.1155633e-10
7.0811938e-10
7.0562699e-10
7.0562063e-10
7.0856605e-10
7.1345867e-10
7.1974803e-10
7.2654623e-10
7.3268258e-10
7.3753423e-10
7.4050341e-10
7.4131043e-10
7.3976359e-10
7.1585788e-10
7.2124166e-10
7.2425409e-10
7.2715928e-10
7.3006586e-10
7.3290036e-10
7.3552842e-10
7.377082e-10
7.3904777e-10
7.3909038e-10
7.3781047e-10
7.3681755e-10
7.405757e-10
7.5427353e-10
7.7236502e-10
7.7723961e-10
7.9947995e-10
8.1627368e-10
8.3302505e-10
7.7852769e-10
7.5783934e-10
7.526771e-10
7.5156633e-10
7.4895531e-10
7.4362554e-10
7.3668483e-10
7.2953628e-10
7.2430809e-10
7.2286665e-10
7.2232157e-10
7.2114345e-10
7.1894415e-10
7.1588475e-10
7.1286551e-10
7.1123299e-10
7.1154688e-10
7.135456e-10
7.2714802e-10
7.3227042e-10
7.3234684e-10
7.3732062e-10
7.4147956e-10
7.4482807e-10
7.464608e-10
7.4544048e-10
7.4176937e-10
7.3633335e-10
7.3020379e-10
7.2419955e-10
7.1978369e-10
7.1677959e-10
7.1388422e-10
7.1067009e-10
7.0738922e-10
7.048895e-10
7.0436068e-10
7.0768259e-10
7.1526661e-10
7.2480062e-10
7.3456838e-10
7.4280765e-10
7.4678345e-10
7.4925687e-10
7.4997879e-10
7.4804003e-10
7.4284196e-10
7.198444e-10
7.2589938e-10
7.3084977e-10
7.3548486e-10
7.3992127e-10
7.4398792e-10
7.4745771e-10
7.5000329e-10
7.5116126e-10
7.5059004e-10
7.496287e-10
7.5598965e-10
7.8759379e-10
8.5264026e-10
9.0467018e-10
8.026679e-10
5.5690959e-10
1.8780834e-10
5.432621e-10
7.2563536e-10
7.6914294e-10
7.718372e-10
7.6735689e-10
7.5858774e-10
7.4731956e-10
7.3608374e-10
7.2891642e-10
7.2718064e-10
7.270912e-10
7.2642825e-10
7.2503121e-10
7.2458302e-10
7.298864e-10
7.469153e-10
7.7224467e-10
7.8206075e-10
8.0712934e-10
8.0196873e-10
7.7591333e-10
7.7907597e-10
7.7122067e-10
7.6689856e-10
7.6543392e-10
7.6279015e-10
7.5680488e-10
7.4819231e-10
7.3866868e-10
7.298987e-10
7.2425809e-10
7.2057758e-10
7.1748267e-10
7.1483766e-10
7.1388275e-10
7.1758352e-10
7.2996478e-10
7.5483871e-10
7.7049348e-10
7.8645302e-10
7.9906121e-10
8.0506685e-10
7.8619463e-10
7.7563035e-10
7.7136343e-10
7.6639377e-10
7.5715954e-10
7.2280888e-10
7.3235394e-10
7.3874401e-10
7.444102e-10
7.4943865e-10
7.5351548e-10
7.5627162e-10
7.5723163e-10
7.5573995e-10
7.512473e-10
7.44826e-10
7.3280455e-10
6.422322e-10
3.4744806e-10
1.512047e-10
5.0721268e-10
7.1972068e-10
7.7619236e-10
7.8149004e-10
7.7324653e-10
7.5926858e-10
7.4462813e-10
7.3445966e-10
7.3079588e-10
7.2959733e-10
7.2789991e-10
7.2644131e-10
7.3225937e-10
7.6193706e-10
8.0992949e-10
7.9857132e-10
4.5057277e-10
1.3288742e-10
4.7600325e-10
7.092034e-10
7.7041432e-10
7.7869141e-10
7.7691674e-10
7.7593546e-10
7.7063806e-10
7.6066632e-10
7.4865357e-10
7.3757317e-10
7.2966803e-10
7.2386478e-10
7.1945588e-10
7.1752327e-10
7.2324481e-10
7.4906005e-10
8.0562981e-10
8.9946843e-10
8.8928585e-10
8.8786359e-10
9.1692597e-10
9.7477043e-10
8.5676209e-10
8.028633e-10
7.8833694e-10
7.8343437e-10
7.7365047e-10
7.1667144e-10
7.3136064e-10
7.3789316e-10
7.4327081e-10
7.4756449e-10
7.5034427e-10
7.5112585e-10
7.4932169e-10
7.4403858e-10
7.3357937e-10
7.1246969e-10
6.4180328e-10
3.7074244e-10
1.6393117e-10
5.8499148e-10
7.4919136e-10
7.8018707e-10
7.7766279e-10
7.631301e-10
7.4523683e-10
7.3024689e-10
7.2280806e-10
7.1865939e-10
7.1400242e-10
7.0993838e-10
7.0741229e-10
6.3415356e-10
3.3456805e-10
1.5182622e-10
4.8020661e-10
7.0205446e-10
7.6139585e-10
7.7325435e-10
7.7270246e-10
7.6391755e-10
7.5075627e-10
7.3708141e-10
7.2491421e-10
7.1469636e-10
7.0683046e-10
7.0361161e-10
7.0555085e-10
6.489657e-10
3.605008e-10
2.2820972e-10
6.0448201e-10
7.5133921e-10
7.7729006e-10
7.8303609e-10
7.7894754e-10
6.9709717e-10
7.1670985e-10
7.2280722e-10
7.2768995e-10
7.3137441e-10
7.3330614e-10
7.3297153e-10
7.2996064e-10
7.2364098e-10
7.109345e-10
6.7829781e-10
5.7249996e-10
2.9027274e-10
1.1716397e-10
5.1895793e-10
7.1561075e-10
7.6696844e-10
7.6845167e-10
7.5204611e-10
7.2926714e-10
7.0922405e-10
6.9857221e-10
6.9211e-10
6.8550941e-10
6.7738465e-10
6.3823606e-10
3.796041e-10
1.6117315e-10
5.641039e-10
7.2375137e-10
7.5847198e-10
7.6271607e-10
7.5398545e-10
7.383584e-10
7.2020856e-10
7.0215623e-10
6.8652385e-10
6.7373096e-10
6.6025533e-10
5.9912391e-10
3.2807169e-10
9.2331548e-11
4.6211294e-10
6.5219664e-10
7.3728987e-10
7.625374e-10
7.6551016e-10
6.6772595e-10
6.9124559e-10
6.9890842e-10
7.0561605e-10
7.111217e-10
7.1470857e-10
7.160748e-10
7.1569931e-10
7.1449882e-10
7.0773561e-10
6.7407596e-10
5.5649902e-10
2.9497225e-10
8.4643544e-11
5.1411095e-10
7.0173999e-10
7.5204637e-10
7.4878641e-10
7.2625361e-10
6.9828967e-10
6.772537e-10
6.6763725e-10
6.6274216e-10
6.5914764e-10
6.5264485e-10
5.9866097e-10
3.2168953e-10
1.2019253e-10
5.1314219e-10
6.9832866e-10
7.4590839e-10
7.4802116e-10
7.3373685e-10
7.1220547e-10
6.8792358e-10
6.6494928e-10
6.466419e-10
6.31092e-10
6.0062878e-10
4.72087e-10
2.3898327e-10
2.0691682e-10
5.64205e-10
6.9840299e-10
7.3788904e-10
7.3992387e-10
6.3884395e-10
6.6625465e-10
6.7948632e-10
6.916559e-10
7.0241181e-10
7.1143815e-10
7.1971154e-10
7.3110758e-10
7.5254858e-10
7.6266803e-10
7.3200248e-10
6.0808977e-10
3.7146498e-10
9.279126e-11
5.5901122e-10
7.1095194e-10
7.4368533e-10
7.2789522e-10
6.9717196e-10
6.695037e-10
6.5625348e-10
6.5403388e-10
6.5479014e-10
6.586775e-10
6.566484e-10
6.0083898e-10
3.5428055e-10
4.1522772e-11
1.5314883e-10
5.269691e-10
7.0027605e-10
7.4261574e-10
7.3545793e-10
7.1174564e-10
6.823094e-10
6.5293985e-10
6.2913813e-10
6.1389465e-10
6.036418e-10
5.6802601e-10
3.4476374e-10
1.57594e-10
5.3548027e-10
6.8294676e-10
7.2583446e-10
7.1673193e-10
6.204815e-10
6.5302024e-10
6.750444e-10
6.954962e-10
7.1546534e-10
7.3771868e-10
7.6808416e-10
8.2312664e-10
9.5626922e-10
1.0047504e-09
9.7123119e-10
7.8698044e-10
5.7330655e-10
1.4766872e-10
8.9914157e-11
2.2124579e-10
6.4466123e-10
7.41298e-10
7.4625302e-10
7.1572577e-10
6.8391615e-10
6.7220341e-10
6.8437962e-10
7.0687083e-10
7.1559306e-10
7.3154682e-10
7.423412e-10
7.0220303e-10
4.9488693e-10
1.2261839e-10
1.2666053e-10
3.4102806e-10
5.8919196e-10
7.2652422e-10
7.512378e-10
7.3088748e-10
6.9793007e-10
6.6481844e-10
6.3738072e-10
6.1817963e-10
6.1063769e-10
6.1149252e-10
5.869616e-10
3.7376974e-10
3.247821e-11
1.7544825e-10
5.6128461e-10
6.9911348e-10
7.3390937e-10
7.0711275e-10
6.1663436e-10
6.5556921e-10
6.8721871e-10
7.1754064e-10
7.5044634e-10
7.7499121e-10
7.1028662e-10
4.5110929e-10
3.2338713e-10
7.1441255e-10
7.6303156e-10
5.0030096e-10
2.3409425e-10
1.0643926e-10
2.3105847e-10
4.3144357e-10
7.0306865e-10
6.4249136e-10
5.3208855e-10
7.5297597e-10
7.8276844e-10
7.5819167e-10
7.203949e-10
7.0817559e-10
7.4864618e-10
8.4441689e-10
9.7999373e-10
9.4432963e-10
9.8187318e-10
1.0407898e-09
1.0379617e-09
7.707492e-10
4.4782176e-10
2.0789886e-10
5.443254e-11
2.1875972e-10
7.2061386e-10
5.8872036e-10
6.8725866e-10
7.6982345e-10
7.684943e-10
7.3558118e-10
7.0282716e-10
6.8792838e-10
6.8787824e-10
6.7658892e-10
6.7995155e-10
6.9822023e-10
6.926961e-10
5.1976501e-10
1.4156349e-10
3.229042e-10
4.160338e-10
6.4442209e-10
7.4535042e-10
7.6110605e-10
7.1453235e-10
6.2531928e-10
6.7094108e-10
7.1091469e-10
7.4986143e-10
7.8007347e-10
7.075405e-10
4.1374296e-10
2.9123699e-10
6.5658899e-10
7.2312603e-10
6.5738014e-10
6.4934312e-10
1.6304486e-09
3.5085044e-09
4.751058e-09
1.5450468e-09
8.2587833e-10
8.5772482e-10
8.2474954e-10
7.778158e-10
7.4588469e-10
7.5515814e-10
7.3265748e-10
4.9658879e-10
3.8774267e-10
6.9552428e-10
7.0773927e-10
6.1896731e-10
2.7929222e-10
2.4651497e-10
2.4423775e-09
4.1539294e-09
1.4562205e-09
8.1861119e-10
7.9634258e-10
8.1679819e-10
7.8841694e-10
7.5311168e-10
7.5366322e-10
8.4115368e-10
9.8661372e-10
9.0945997e-10
9.3132334e-10
9.9059525e-10
1.0089506e-09
7.8625316e-10
4.7360349e-10
2.3420859e-10
8.1237847e-11
1.3423846e-10
2.3750382e-10
5.1495393e-10
5.0761771e-09
1.5334065e-09
7.8501821e-10
8.132401e-10
8.0190487e-10
7.3698129e-10
6.4221668e-10
6.936235e-10
7.3876546e-10
7.7720018e-10
7.5986815e-10
4.9359669e-10
2.904289e-10
6.1855771e-10
7.8368807e-10
9.006757e-10
1.3062557e-09
2.440022e-09
6.0307177e-09
2.0560145e-09
1.0647428e-09
9.4194666e-10
8.630471e-10
8.0525569e-10
7.7926208e-10
7.5375972e-10
5.3646816e-10
3.5217105e-10
7.0024867e-10
8.2075063e-10
7.3299983e-10
8.2939192e-10
1.9390039e-09
5.1546009e-09
1.6997577e-09
1.0045182e-09
8.9212181e-10
8.5701955e-10
8.0927904e-10
7.7783918e-10
7.4699671e-10
5.6291461e-10
3.8622876e-10
7.0822256e-10
7.256536e-10
6.6243931e-10
6.7005977e-10
1.5756913e-09
3.0929141e-09
3.2549756e-09
6.3449548e-09
4.3744124e-09
9.5168357e-10
8.9160339e-10
8.5055218e-10
7.7075483e-10
6.6384504e-10
7.1943885e-10
7.6592136e-10
7.9444753e-10
7.3736203e-10
4.5362824e-10
2.9723961e-10
7.1361772e-10
1.0190186e-09
1.4501991e-09
2.4011866e-09
5.852004e-09
2.5630303e-09
1.2300688e-09
1.003072e-09
9.0014314e-10
8.4017061e-10
8.099079e-10
7.4417038e-10
4.9858776e-10
2.2649195e-10
6.8130001e-10
9.2123628e-10
1.0639365e-09
1.3369186e-09
2.5489103e-09
4.9495243e-09
1.8123116e-09
1.1338683e-09
9.6271707e-10
8.8928346e-10
8.3173047e-10
7.9302273e-10
7.1297327e-10
5.397813e-10
3.5644445e-10
6.9698114e-10
8.2650364e-10
9.2814122e-10
1.3010435e-09
1.9836271e-09
2.7301474e-09
5.7254571e-09
5.0341143e-09
1.1122978e-09
9.7170819e-10
9.0348265e-10
8.1297417e-10
6.8850094e-10
7.4701194e-10
7.9323759e-10
8.1240394e-10
7.4034096e-10
4.9607152e-10
1.4965059e-10
7.097178e-10
1.1184108e-09
1.6605252e-09
2.5946739e-09
5.3522313e-09
2.8722328e-09
1.3251002e-09
1.048437e-09
9.4106936e-10
8.834331e-10
8.4471413e-10
7.5935149e-10
5.3772242e-10
8.2252589e-11
7.2384861e-10
1.0236654e-09
1.3673087e-09
1.9239858e-09
3.3240499e-09
4.0860739e-09
1.8232388e-09
1.2079625e-09
1.0118272e-09
9.1963854e-10
8.5712786e-10
7.9749022e-10
6.0233781e-10
1.5457431e-10
6.643197e-10
8.7859503e-10
1.0866075e-09
1.4295797e-09
1.9704125e-09
2.7563999e-09
5.7842547e-09
4.4236335e-09
1.2415612e-09
1.0446415e-09
9.5706968e-10
8.6064346e-10
7.1573108e-10
7.7661564e-10
8.2334532e-10
8.3921719e-10
7.7620734e-10
6.0993159e-10
6.1448155e-12
2.5108891e-10
8.7604111e-10
1.2923353e-09
1.9060225e-09
2.8011675e-09
5.0357284e-09
2.9185176e-09
1.3690149e-09
1.0882547e-09
9.8999081e-10
9.3756967e-10
8.9444801e-10
8.1760897e-10
6.5628955e-10
1.5434308e-10
8.8688074e-10
1.1892273e-09
1.7203616e-09
2.5565453e-09
3.8901576e-09
3.2548081e-09
1.76885e-09
1.2449347e-09
1.0515602e-09
9.5534934e-10
8.8921368e-10
8.1075311e-10
5.7990698e-10
1.2864392e-10
8.45342e-10
9.764896e-10
1.2345882e-09
1.6456347e-09
2.2162486e-09
2.9555188e-09
5.4503665e-09
3.7746939e-09
1.3230351e-09
1.1047123e-09
1.0080825e-09
9.1070712e-10
7.4561854e-10
8.0883935e-10
8.5808993e-10
8.7871491e-10
8.5022096e-10
8.3395965e-10
1.9201565e-11
4.32262e-12
9.4271598e-12
1.4966769e-10
6.2030573e-10
1.3118363e-09
1.5539166e-09
2.1680272e-09
2.9393941e-09
4.8099785e-09
2.7423566e-09
1.3844026e-09
1.1302213e-09
1.048192e-09
1.0043385e-09
9.6870289e-10
9.4518129e-10
9.3248766e-10
3.9497745e-11
3.0204232e-11
4.5866556e-10
1.1628837e-09
1.4472505e-09
2.1566735e-09
3.138668e-09
3.9322083e-09
2.6449432e-09
1.6910897e-09
1.2667159e-09
1.0929814e-09
1.0015939e-09
9.3458236e-10
8.4870772e-10
6.2741916e-10
2.8885677e-11
9.8773961e-11
1.598422e-09
1.303961e-09
1.4532135e-09
1.9012129e-09
2.4761519e-09
3.0597434e-09
5.3398466e-09
3.1372291e-09
1.3569529e-09
1.1497609e-09
1.0536149e-09
9.5991988e-10
7.7827787e-10
8.4387067e-10
8.9769679e-10
9.3066402e-10
9.6797922e-10
1.2666997e-09
3.2487203e-10
4.8968402e-10
8.0189394e-11
7.4360049e-11
7.2845758e-11
1.4721287e-10
3.4834128e-10
7.993654e-10
1.8834565e-09
1.8576596e-09
2.3978988e-09
2.9432276e-09
4.3809651e-09
2.4498004e-09
1.3888419e-09
1.1769959e-09
1.1132355e-09
1.0812202e-09
1.068317e-09
1.1767179e-09
1.5311884e-09
1.2377723e-09
7.9353504e-11
2.379076e-11
5.0011266e-11
3.21189e-10
2.257518e-09
1.5363134e-09
1.8656129e-09
2.6709043e-09
3.3488742e-09
3.2791897e-09
2.2347731e-09
1.6176965e-09
1.2876305e-09
1.1408772e-09
1.059664e-09
9.97996e-10
9.2481538e-10
7.8736226e-10
3.7717274e-10
1.1617965e-11
9.2694728e-11
3.948708e-10
1.8252917e-09
1.9264278e-09
1.7639981e-09
2.1659309e-09
2.6511208e-09
2.9721961e-09
5.1083962e-09
2.5633975e-09
1.3559827e-09
1.1799536e-09
1.091156e-09
1.0048625e-09
8.1357018e-10
8.8120868e-10
9.406866e-10
9.9056629e-10
1.1313332e-09
1.9107804e-09
9.2840911e-10
1.2789212e-09
1.0960619e-09
9.5930772e-10
1.216594e-09
1.4288686e-09
1.5012263e-09
1.5258846e-09
2.3065926e-09
2.1283017e-09
2.5151893e-09
2.7884578e-09
3.5959844e-09
2.1443252e-09
1.3913769e-09
1.2261671e-09
1.1795122e-09
1.1604788e-09
1.1783757e-09
1.5213544e-09
2.7324728e-09
2.6189565e-09
2.0534148e-09
2.21305e-10
4.010601e-10
1.1321056e-09
2.7263961e-09
2.4340663e-09
1.9430977e-09
2.3174635e-09
2.9733208e-09
2.9784577e-09
2.5801461e-09
1.9597902e-09
1.5590104e-09
1.3114149e-09
1.1931461e-09
1.1255385e-09
1.076972e-09
1.045992e-09
1.1857591e-09
3.7810782e-10
7.4338227e-11
5.167579e-11
9.80598e-11
1.6223253e-10
1.0832646e-09
2.1951997e-09
2.3638982e-09
2.455315e-09
2.06534e-09
2.3768255e-09
2.6681614e-09
2.7195471e-09
4.5179199e-09
2.1040409e-09
1.3348205e-09
1.196419e-09
1.1187175e-09
1.0421668e-09
8.5101264e-10
9.1967774e-10
9.8425484e-10
1.0501168e-09
1.3107609e-09
2.4806997e-09
1.5758712e-09
1.6326952e-09
1.0482981e-09
9.7351312e-10
1.5285273e-09
1.9562869e-09
2.1334372e-09
2.2249986e-09
2.3628802e-09
2.2411567e-09
2.3643868e-09
2.4520787e-09
2.7724367e-09
1.8839147e-09
1.3926356e-09
1.2718332e-09
1.2399599e-09
1.2323111e-09
1.2708891e-09
1.8462925e-09
4.4533605e-09
3.1359667e-09
1.8878486e-09
1.8956224e-09
2.6805604e-09
2.7237879e-09
2.6199529e-09
2.3702472e-09
2.2185778e-09
2.529114e-09
2.7859497e-09
2.3849577e-09
2.0825917e-09
1.7694425e-09
1.513282e-09
1.334226e-09
1.2431707e-09
1.1908977e-09
1.1598425e-09
1.1871112e-09
1.7128531e-09
7.9236333e-10
1.0449489e-09
1.3575288e-09
1.4996475e-09
1.4904023e-09
2.0191704e-09
3.4604963e-09
3.5957178e-09
2.7537647e-09
2.2461634e-09
2.4597165e-09
2.4871035e-09
2.4058471e-09
3.5006051e-09
1.7681091e-09
1.3035899e-09
1.2002528e-09
1.1348247e-09
1.068824e-09
8.8981503e-10
9.5778212e-10
1.0253404e-09
1.1007087e-09
1.4151332e-09
2.9181668e-09
2.3185222e-09
1.9936133e-09
1.0479659e-09
1.0366282e-09
1.6248526e-09
2.0393241e-09
2.2074563e-09
2.255851e-09
2.144757e-09
2.0338735e-09
1.9638713e-09
2.0129468e-09
2.1371858e-09
1.6818803e-09
1.3878439e-09
1.3067901e-09
1.2878439e-09
1.2890761e-09
1.3308737e-09
1.8593198e-09
5.6388761e-09
3.4556771e-09
1.8504363e-09
1.8121431e-09
2.0352173e-09
2.1920156e-09
2.253527e-09
2.2031742e-09
2.2090446e-09
2.359798e-09
2.2624549e-09
1.8613102e-09
1.7594903e-09
1.6312253e-09
1.4737865e-09
1.3492694e-09
1.2829386e-09
1.246242e-09
1.2334238e-09
1.3007197e-09
2.069099e-09
1.1985903e-09
1.5643534e-09
1.9146379e-09
1.8652014e-09
1.5953065e-09
2.1237758e-09
4.0718315e-09
3.895037e-09
2.6072749e-09
2.29216e-09
2.3474188e-09
2.1318463e-09
2.1403847e-09
2.4852205e-09
1.5335955e-09
1.2664807e-09
1.1919889e-09
1.1384143e-09
1.0824988e-09
9.2888384e-10
9.943088e-10
1.0622214e-09
1.1405892e-09
1.3992778e-09
3.2024474e-09
3.2473679e-09
2.4595697e-09
1.0639947e-09
9.9967613e-10
1.5099159e-09
1.7881621e-09
1.909966e-09
1.8910238e-09
1.7560614e-09
1.6203946e-09
1.5340589e-09
1.624572e-09
1.7176091e-09
1.5273234e-09
1.3709804e-09
1.3245526e-09
1.3177551e-09
1.3265185e-09
1.3706084e-09
1.6890848e-09
5.1341999e-09
4.018213e-09
1.8952797e-09
1.6862309e-09
1.7348107e-09
1.808005e-09
1.8604471e-09
1.8858128e-09
1.92593e-09
1.9372835e-09
1.726881e-09
1.5056042e-09
1.5493831e-09
1.5276042e-09
1.4347593e-09
1.3506063e-09
1.305662e-09
1.2850331e-09
1.2921704e-09
1.3863779e-09
2.0500523e-09
1.8738258e-09
1.7379999e-09
2.0986373e-09
2.090342e-09
1.8327409e-09
2.1205503e-09
4.230403e-09
3.2731452e-09
2.3322731e-09
2.1235656e-09
1.9867135e-09
1.6896497e-09
1.8210663e-09
1.8191087e-09
1.3698247e-09
1.2236659e-09
1.1717159e-09
1.1288851e-09
1.0818421e-09
9.6629898e-10
1.0281928e-09
1.0940762e-09
1.1717964e-09
1.3642584e-09
2.8373459e-09
4.1534461e-09
3.0274247e-09
1.0642952e-09
8.3573373e-10
1.2964013e-09
1.5145484e-09
1.5712581e-09
1.4959105e-09
1.363668e-09
1.2506628e-09
1.2306668e-09
1.3532459e-09
1.4526674e-09
1.4037286e-09
1.3380651e-09
1.3209035e-09
1.3260241e-09
1.3428335e-09
1.3890781e-09
1.5790802e-09
3.1683366e-09
5.2835316e-09
1.962673e-09
1.5379043e-09
1.4751871e-09
1.4583418e-09
1.4681718e-09
1.4996033e-09
1.5316406e-09
1.508316e-09
1.3666664e-09
1.3057907e-09
1.4220658e-09
1.4498841e-09
1.3894815e-09
1.3334404e-09
1.3067437e-09
1.3009289e-09
1.3250686e-09
1.4428723e-09
1.9563555e-09
2.2335439e-09
2.1939934e-09
2.1863433e-09
2.0182541e-09
1.817471e-09
1.9766344e-09
4.3751445e-09
2.6977452e-09
1.9570757e-09
1.7410043e-09
1.5045049e-09
1.3198219e-09
1.4826302e-09
1.439221e-09
1.2489812e-09
1.1742764e-09
1.1397883e-09
1.1064275e-09
1.0667878e-09
9.9956664e-10
1.0575769e-09
1.1192222e-09
1.1933451e-09
1.3448442e-09
2.2832228e-09
3.9488884e-09
3.6318358e-09
1.0431864e-09
4.0653369e-10
7.7096901e-10
1.2954933e-09
1.3973812e-09
1.2295391e-09
1.1005925e-09
1.0298249e-09
1.0595203e-09
1.180025e-09
1.2794761e-09
1.2983681e-09
1.2887471e-09
1.2948439e-09
1.3111982e-09
1.3353568e-09
1.3777227e-09
1.4961979e-09
2.1657152e-09
4.548978e-09
2.1363289e-09
1.4341919e-09
1.278716e-09
1.1910631e-09
1.1580234e-09
1.1703915e-09
1.1894106e-09
1.2062115e-09
1.1694227e-09
1.2653213e-09
1.3562477e-09
1.3993257e-09
1.3319466e-09
1.2921082e-09
1.2819838e-09
1.2903174e-09
1.3302885e-09
1.4912381e-09
2.1068497e-09
2.3808738e-09
2.1557405e-09
1.7845543e-09
1.3179997e-09
1.0663686e-09
1.1861116e-09
2.9536254e-09
2.1651541e-09
1.5439646e-09
1.3146939e-09
1.1053911e-09
1.0740943e-09
1.2241648e-09
1.2194934e-09
1.1518472e-09
1.1186159e-09
1.0976333e-09
1.0724325e-09
1.0387315e-09
1.0263394e-09
1.0807782e-09
1.1368283e-09
1.2057462e-09
1.3358902e-09
2.0099141e-09
3.6468619e-09
3.3027571e-09
1.0363529e-09
2.7324975e-10
1.5041992e-09
1.095641e-09
9.6426166e-10
9.2354784e-10
9.6769458e-10
1.0678156e-09
1.1575977e-09
1.2043484e-09
1.2261182e-09
1.2487189e-09
1.2744613e-09
1.302339e-09
1.3362441e-09
1.4092583e-09
1.7234373e-09
2.9890825e-09
2.5754158e-09
1.3652658e-09
1.1503595e-09
9.9497452e-10
8.448719e-10
6.5311564e-10
3.4273865e-10
1.8809222e-10
1.0673858e-09
1.425705e-09
1.2755231e-09
1.2280055e-09
1.2338706e-09
1.2590943e-09
1.3218577e-09
1.6368219e-09
3.231421e-09
3.4551368e-11
3.0190252e-10
1.9958686e-09
1.6567592e-09
1.1926363e-09
9.8674455e-10
8.6401544e-10
9.2515868e-10
1.0518703e-09
1.079927e-09
1.0682639e-09
1.0588363e-09
1.0480539e-09
1.0296153e-09
1.000452e-09
1.044872e-09
1.0967524e-09
1.1470297e-09
1.2109442e-09
1.3385377e-09
2.081365e-09
4.6647298e-09
3.2270767e-10
1.0235959e-09
8.9672478e-10
8.7267758e-10
9.1319418e-10
9.90122e-10
1.0655351e-09
1.1192352e-09
1.1553742e-09
1.1874472e-09
1.2193407e-09
1.2467576e-09
1.2715411e-09
1.3154784e-09
1.4774036e-09
2.1253076e-09
2.7630502e-09
1.2929406e-09
1.0574879e-09
7.7220114e-10
3.5495789e-10
4.1724418e-10
1.0188439e-09
1.1306453e-09
1.1668446e-09
1.2122476e-09
1.3026091e-09
1.4684157e-09
6.187156e-11
1.6525836e-09
1.2649656e-09
9.4219971e-10
7.8825302e-10
7.4439009e-10
8.3364806e-10
9.3807709e-10
9.8133078e-10
9.9444271e-10
9.9832642e-10
9.9482436e-10
9.8166485e-10
9.5570979e-10
1.0542642e-09
1.1050294e-09
1.1502481e-09
1.210133e-09
1.3463123e-09
1.829527e-09
1.9751552e-10
9.581562e-10
8.5492435e-10
8.4166086e-10
8.7487062e-10
9.3249852e-10
9.9287328e-10
1.0429974e-09
1.0822244e-09
1.1172295e-09
1.1510629e-09
1.1752257e-09
1.1937271e-09
1.2219758e-09
1.3125021e-09
1.6646102e-09
2.282098e-09
1.2306857e-09
1.0084942e-09
6.9423458e-10
2.8289622e-10
2.6743279e-10
8.359698e-10
1.0149086e-09
1.0865656e-09
1.150666e-09
1.251319e-09
1.3027356e-09
6.3824887e-11
1.2960282e-09
9.9519791e-10
7.8507211e-10
6.8903821e-10
6.9086926e-10
7.7491726e-10
8.5991715e-10
9.0670928e-10
9.297904e-10
9.4060864e-10
9.4186162e-10
9.3254848e-10
9.0861972e-10
1.0543753e-09
1.105278e-09
1.1457879e-09
1.1998613e-09
1.3199931e-09
1.5300349e-09
1.502938e-10
8.955184e-10
8.2265226e-10
8.1750451e-10
8.4506724e-10
8.8855577e-10
9.3512545e-10
9.7663321e-10
1.0118066e-09
1.0442995e-09
1.0750103e-09
1.0960133e-09
1.1126918e-09
1.1353383e-09
1.1913505e-09
1.3846332e-09
1.6924395e-09
1.1862388e-09
9.6015885e-10
7.0929326e-10
3.5527215e-10
1.5773002e-10
7.4194011e-10
9.1700557e-10
1.0076847e-09
1.0834343e-09
1.1851625e-09
1.1922413e-09
7.8061292e-11
1.0138099e-09
8.2227527e-10
6.991244e-10
6.4906571e-10
6.6860482e-10
7.3697835e-10
8.0505102e-10
8.4903588e-10
8.7468122e-10
8.8844864e-10
8.9242558e-10
8.857716e-10
8.629966e-10
1.0459466e-09
1.0972892e-09
1.1324679e-09
1.1767242e-09
1.2607987e-09
1.3212034e-09
9.7577703e-11
1.4342704e-10
8.5165022e-10
8.0506745e-10
8.0396831e-10
8.2640953e-10
8.5873505e-10
8.9226078e-10
9.2209164e-10
9.4805296e-10
9.7262863e-10
9.9750071e-10
1.0173155e-09
1.0362936e-09
1.0596206e-09
1.0993351e-09
1.2012823e-09
1.2966627e-09
1.043532e-09
8.6641615e-10
7.3060466e-10
4.7197622e-10
9.7239613e-11
7.1464608e-10
8.519408e-10
9.4420535e-10
1.0202839e-09
1.1137075e-09
1.1098779e-09
9.8440044e-11
8.2991506e-10
7.3014881e-10
6.6662269e-10
6.4464064e-10
6.656119e-10
7.1655546e-10
7.688241e-10
8.0553173e-10
8.2870125e-10
8.4256036e-10
8.4790653e-10
8.4337768e-10
8.2173044e-10
1.0308056e-09
1.0816606e-09
1.1100586e-09
1.1399829e-09
1.1788912e-09
1.1738428e-09
7.7713325e-10
5.8353863e-11
3.078241e-10
8.6148047e-10
8.4015765e-10
8.3210132e-10
8.413095e-10
8.5681923e-10
8.7213874e-10
8.8073767e-10
8.9086025e-10
9.0547294e-10
9.2520434e-10
9.4626206e-10
9.7039522e-10
9.9846749e-10
1.034282e-09
1.0906431e-09
1.0828067e-09
9.0888985e-10
7.7534651e-10
7.37676e-10
6.1136062e-10
1.4476701e-10
1.6164214e-10
1.9549797e-10
7.5055524e-10
8.2462294e-10
9.0446198e-10
9.6869826e-10
1.0440037e-09
1.0517281e-09
1.2875583e-10
3.8846871e-11
2.6229822e-10
7.6866312e-10
7.3243866e-10
6.9785389e-10
6.8599293e-10
6.9245058e-10
7.2208627e-10
7.5251644e-10
7.718956e-10
7.8827221e-10
8.0100732e-10
8.0782198e-10
8.0602369e-10
7.867163e-10
1.0119553e-09
1.0605178e-09
1.0808749e-09
1.0945243e-09
1.0934645e-09
1.0772867e-09
2.7080896e-09
7.9989473e-10
3.4910398e-10
1.7532227e-10
1.4604595e-10
3.1624392e-10
6.2785435e-10
9.2568422e-10
1.0134122e-09
9.5122972e-10
9.9052001e-10
9.4303857e-10
9.0237195e-10
8.620838e-10
8.4651834e-10
8.4890407e-10
8.6448482e-10
8.8866502e-10
9.1876432e-10
9.5547981e-10
1.0089479e-09