/*--------------------------------*- C++ -*----------------------------------*\
  =========                 |
  \\      /  F ield         | OpenFOAM: The Open Source CFD Toolbox
   \\    /   O peration     | Website:  https://openfoam.org
    \\  /    A nd           | Version:  7
     \\/     M anipulation  |
\*---------------------------------------------------------------------------*/
FoamFile
{
    version     2.0;
    format      ascii;
    class       volScalarField;
    location    "50/fluid";
    object      epsilon;
}
// * * * * * * * * * * * * * * * * * * * * * * * * * * * * * * * * * * * * * //

dimensions      [0 2 -3 0 0 0 0];

internalField   nonuniform List<scalar> 
17240
(
0.054757091
0.15331334
0.15331341
0.15331352
0.15331367
0.15331385
0.15331405
0.15331426
0.15331444
0.15331456
0.15331455
0.15331437
0.153314
0.15331348
0.15331293
0.15331254
0.15331245
0.1533127
0.15331321
0.15331377
0.15331419
0.15331438
0.15331435
0.15331416
0.15331392
0.15331368
0.1533135
0.15331338
0.15331332
0.15331328
0.15331325
0.15331318
0.15331308
0.15331294
0.15331279
0.15331271
0.15331275
0.15331295
0.1533133
0.15331372
0.15331411
0.15331436
0.15331444
0.15331436
0.15331418
0.15331395
0.15331372
0.15331353
0.15331338
0.15331328
0.15331319
0.15331312
0.15331303
0.15331295
0.15331287
0.15331285
0.15331291
0.15331308
0.15331332
0.15331359
0.15331381
0.15331391
0.15331389
0.15331378
0.15331364
0.15331353
0.011844909
0.023676872
0.023676721
0.023676378
0.023675789
0.023674785
0.023673025
0.023669947
0.023664748
0.023656474
0.023644262
0.023627766
0.023607701
0.023586282
0.023567135
0.023554468
0.023551574
0.023559143
0.023577046
0.023601558
0.023627778
0.023651387
0.023669761
0.023682029
0.023688607
0.023690528
0.02368891
0.023684641
0.023678265
0.023670045
0.023659755
0.02364739
0.023633241
0.023618158
0.023603735
0.023591995
0.023584962
0.023584447
0.023590985
0.023603646
0.023620261
0.023638081
0.023654522
0.023667773
0.023676939
0.023681939
0.023683188
0.023681281
0.023676772
0.023670074
0.023661465
0.023651194
0.023639649
0.023627552
0.023616078
0.023606824
0.023601578
0.023601859
0.023608361
0.023620579
0.023636821
0.023654637
0.02367157
0.023685669
0.023695749
0.023701271
0.0040419569
0.0066258915
0.0066257019
0.0066253192
0.0066246819
0.006623608
0.0066217279
0.0066184177
0.0066127784
0.0066037242
0.0065902586
0.0065719647
0.006549624
0.0065257027
0.0065042408
0.0064899183
0.0064864498
0.006494815
0.006514788
0.0065422431
0.0065716698
0.0065981851
0.0066187876
0.0066324817
0.0066397485
0.0066417827
0.0066398769
0.0066350574
0.0066279362
0.0066188101
0.0066074252
0.0065937347
0.0065780224
0.00656121
0.0065450466
0.0065317945
0.0065238024
0.006523094
0.0065302995
0.0065444087
0.0065630147
0.0065830335
0.0066015423
0.0066164564
0.0066267486
0.0066323294
0.0066336851
0.006631511
0.0066264502
0.0066189733
0.0066093887
0.0065979532
0.0065850847
0.0065715622
0.0065586683
0.0065482037
0.0065421807
0.0065423324
0.0065494861
0.0065631248
0.0065813751
0.0066014818
0.0066206265
0.006636581
0.0066479991
0.0066543162
0.0018194181
0.0026390686
0.0026389027
0.0026385832
0.0026380635
0.0026371932
0.0026356494
0.0026328679
0.0026280139
0.0026200553
0.0026080181
0.0025914541
0.0025710404
0.0025490332
0.0025291565
0.0025157173
0.0025122307
0.0025198054
0.0025381762
0.0025635417
0.0025907454
0.0026152047
0.0026340875
0.0026464779
0.0026528765
0.0026544669
0.0026525108
0.0026479924
0.0026414882
0.0026332548
0.0026230245
0.0026106901
0.0025964467
0.0025810926
0.0025662054
0.0025538801
0.0025463755
0.002545589
0.0025521243
0.0025650776
0.0025822431
0.0026007603
0.0026178833
0.0026316297
0.0026410341
0.0026460376
0.0026471393
0.0026450312
0.0026403388
0.0026335038
0.0026247848
0.0026144043
0.0026026901
0.0025903113
0.0025784057
0.0025686446
0.0025629057
0.0025628353
0.0025692627
0.0025817743
0.0025986669
0.0026173644
0.002635185
0.0026500162
0.0026606051
0.0026664581
0.00097903935
0.0013106703
0.0013105521
0.0013103165
0.0013099386
0.0013093047
0.0013081459
0.0013059664
0.0013020026
0.0012952772
0.0012848314
0.001270172
0.0012518551
0.0012319157
0.0012137482
0.0012012567
0.0011977476
0.0012045012
0.0012211785
0.0012443073
0.0012691016
0.0012913002
0.001308254
0.0013191383
0.0013244956
0.001325518
0.0013234456
0.0013192204
0.0013133972
0.001306173
0.0012972363
0.0012864074
0.0012737792
0.0012600112
0.0012465034
0.0012351942
0.0012282014
0.0012273657
0.0012332105
0.0012449391
0.0012605623
0.0012774626
0.0012930767
0.0013055279
0.0013139181
0.0013182337
0.001319002
0.0013169227
0.0013126071
0.001306464
0.0012986928
0.0012894915
0.001279059
0.0012679419
0.0012571372
0.001248119
0.0012426953
0.0012423918
0.0012480413
0.0012593455
0.0012747894
0.0012919771
0.0013083615
0.0013219467
0.0013315855
0.0013368605
0.00059553692
0.00075396982
0.00075393508
0.00075381028
0.00075359567
0.00075321368
0.00075244669
0.00075085949
0.00074774316
0.00074214636
0.00073308704
0.00071999742
0.000703318
0.0006849271
0.00066799361
0.00065611411
0.00065249744
0.00065872517
0.00067424402
0.00069575298
0.00071876863
0.00073923776
0.000754605
0.0007641176
0.0007684049
0.00076873373
0.00076637515
0.00076225903
0.00075698304
0.00075063895
0.00074282153
0.00073326287
0.00072194534
0.00070940005
0.00069689277
0.00068627661
0.00067961151
0.00067878591
0.0006841837
0.00069507142
0.00070962648
0.00072540323
0.00073993331
0.00075138154
0.00075889525
0.0007625267
0.00076287238
0.00076067732
0.00075656384
0.00075091289
0.00074391037
0.00073567736
0.00072628212
0.00071615135
0.00070616121
0.00069764284
0.00069241748
0.00069192125
0.00069700112
0.00070746608
0.00072194744
0.00073813833
0.00075352785
0.0007661748
0.00077502268
0.00077973406
0.00039632656
0.00048155267
0.00048166536
0.00048170605
0.00048170348
0.00048161583
0.00048127572
0.00048030476
0.00047803714
0.00047352212
0.00046571662
0.00045394769
0.00043855512
0.0004213354
0.00040529938
0.00039377016
0.00039012097
0.0003964415
0.00041140728
0.00043151245
0.00045313927
0.00047226147
0.00048624828
0.00049437631
0.00049741999
0.00049680724
0.00049390236
0.0004896559
0.00048483681
0.00047927857
0.00047244783
0.00046396668
0.00045369135
0.0004420321
0.00043016513
0.00041990749
0.00041340585
0.00041274208
0.00041801025
0.00042847144
0.00044247174
0.00045764446
0.00047151238
0.00048220602
0.00048890094
0.00049175411
0.0004914925
0.00048895916
0.000484817
0.00047942473
0.00047305157
0.00046559901
0.00045701609
0.00044761246
0.00043816438
0.00042994531
0.00042476874
0.00042420197
0.00042901327
0.00043910455
0.00045319959
0.00046894582
0.00048376014
0.00049570414
0.00050381595
0.00050786617
0.00028296599
0.00033313106
0.00033347874
0.00033376141
0.00033403799
0.00033430155
0.00033443698
0.00033412787
0.00033275628
0.00032936981
0.00032285764
0.00031246596
0.00029854371
0.00028294585
0.00026828118
0.00025711816
0.0002542871
0.00026369435
0.00027889754
0.0002945
0.00031370205
0.00033119555
0.00034359877
0.0003500265
0.00035142053
0.00034945809
0.00034565295
0.00034105427
0.00033665499
0.00033184843
0.00032596178
0.00031848547
0.00030913499
0.00029821285
0.00028685602
0.00027688603
0.00027050002
0.0002703435
0.00027577501
0.00028595292
0.00029980823
0.00031475677
0.00032822933
0.00033825401
0.00034402147
0.00034584666
0.00034466904
0.00034149414
0.00033705535
0.0003317748
0.00032592577
0.00031913921
0.0003112348
0.00030240923
0.00029335976
0.00028532154
0.00028014836
0.00027976621
0.00028473629
0.00029502657
0.00030936837
0.00032508044
0.00033952887
0.00035078781
0.00035800805
0.00036112091
0.00021405015
0.00024589876
0.00024657776
0.00024718356
0.00024780127
0.00024845431
0.00024908344
0.00024945111
0.00024901977
0.00024688478
0.00024196711
0.0002337354
0.00022329711
0.00021345512
0.00020443299
0.00019237447
0.00019500986
0.00023807001
0.00025755761
0.00023356392
0.00024165595
0.00025510294
0.00026477626
0.00026867256
0.00026770083
0.00026380776
0.0002586751
0.00025360271
0.00024955505
0.00024549025
0.00024057749
0.00023417989
0.00022590272
0.00021604156
0.0002058199
0.000196952
0.00019104119
0.0001936483
0.00019873884
0.00020684214
0.00022081221
0.00023543132
0.00024830922
0.00025738373
0.00026183492
0.00026216769
0.00025961804
0.00025541764
0.00025039008
0.00024516583
0.00023976996
0.00023360243
0.00022635887
0.00021815311
0.00020967425
0.00020219995
0.00019761723
0.00019774151
0.0002036055
0.00021502933
0.00023052212
0.00024574417
0.00025926836
0.00026937071
0.00027521117
0.00027688473
0.00016998679
0.00019171338
0.00019283939
0.00019386488
0.00019488558
0.00019594276
0.00019703718
0.0001980455
0.0001985922
0.00019797518
0.000195541
0.00019238402
0.00019418042
0.0002097287
0.00023199155
0.00017291889
0.00016059026
0.00037236418
0.00021828275
0.00020590492
0.00021732764
0.00022311048
0.00022277784
0.00021819415
0.00021155468
0.00020459942
0.00019902108
0.00019522063
0.00019188321
0.00018804699
0.00018303879
0.00017660193
0.00016967096
0.00016433848
0.00016117979
0.00015477657
0.00019196259
0.00018226131
0.00016859868
0.00018390446
0.00019594642
0.00020627811
0.00021289683
0.00021489879
0.00021281878
0.00020818147
0.00020244799
0.00019655494
0.00019134473
0.00018634135
0.00018081538
0.0001743804
0.00016721232
0.00016040252
0.0001559634
0.00015686481
0.00015726884
0.00016552482
0.00018108402
0.00020165941
0.00020956357
0.00021780366
0.00022463846
0.00022784183
0.00022715909
0.00014078938
0.0001567518
0.00015853083
0.00016015483
0.00016169401
0.00016318177
0.00016468735
0.00016627264
0.00016789375
0.00016935317
0.00017073766
0.00017330583
0.00018020913
0.00022206525
0.00029772916
0.00020985892
0.00020439875
0.00020615772
0.00019921638
0.00018904982
0.00017856762
0.00016950313
0.00016328362
0.00015962817
0.00015702786
0.00015453033
0.00015178932
0.000149888
0.00015367333
0.00016932847
0.00019603693
0.00016219104
0.0002623995
0.00017325282
0.00020157276
0.0001934366
0.00019537895
0.00019446236
0.00019084775
0.00018441666
0.00017648649
0.00016849561
0.00016154111
0.00015618461
0.00015155384
0.00014683243
0.00014166744
0.00013690245
0.00013649888
0.00014982442
0.00020124258
0.00018264328
0.00018746576
0.0002245433
0.00030501933
0.000234869
0.00021054661
0.00020548801
0.00020288675
0.00019807476
0.00012136589
0.00013409431
0.0001369205
0.00013947345
0.00014173106
0.00014367906
0.00014547781
0.00014749851
0.00015029514
0.00015442114
0.00015938941
0.00016068096
0.00018058104
0.00032592807
0.00020195483
0.00020395721
0.00019002737
0.00017252338
0.00015744642
0.00014637566
0.00013940319
0.00013584963
0.00013403209
0.00013339313
0.00013470212
0.00014100169
0.00015499786
0.00019280509
0.00029727493
0.00020320997
0.00020381814
0.00019768244
0.00018406831
0.00017013961
0.00015722936
0.00014618713
0.00013799756
0.00013233165
0.00012820742
0.00012476152
0.00012182905
0.00012145463
0.00013282628
0.00018365604
0.0004419948
0.00025018194
0.00021791283
0.0002049009
0.00019385961
0.00018234363
0.00010934982
0.00012054747
0.00012502212
0.00012895583
0.000132143
0.00013448311
0.00013627955
0.00013838596
0.00014224901
0.00014916106
0.00015601274
0.00014798728
0.00015262735
0.00023855233
0.00019151266
0.00020283101
0.00018735119
0.00016373635
0.0001452012
0.00013222818
0.00012464594
0.00012108731
0.00011994856
0.00012168172
0.00012851997
0.00014070507
0.0001672911
0.00032250497
0.00021087079
0.00021098206
0.00018863492
0.00016512675
0.00014616627
0.00013210657
0.00012231162
0.0001162555
0.00011298865
0.00011166301
0.00011145884
0.00011197167
0.0001414322
0.00018057495
0.00027625667
0.00021655614
0.00021139376
0.00019604772
0.00017607958
0.00010376254
0.00011480827
0.00012163199
0.00012740955
0.00013167434
0.00013423586
0.00013565379
0.00013751772
0.00014249768
0.00015227716
0.0001625646
0.00014672972
0.00013169035
0.00018002647
0.00018947062
0.00020700256
0.00018936485
0.00016200132
0.00014094518
0.00012695041
0.00011911405
0.00011510235
0.00011405867
0.00011790738
0.00012954075
0.00013985966
0.00013978588
0.00024744202
0.00020663037
0.00022026394
0.00019595032
0.00016531288
0.00014195873
0.00012485721
0.00011319786
0.00010667029
0.00010461328
0.00010650006
0.00010986726
0.0001171182
0.00016983749
0.00041894883
0.00022263154
0.00022260701
0.00020609746
0.00017727726
0.00010406947
0.0001162074
0.00012606378
0.00013417626
0.00013982135
0.00014283868
0.00014445628
0.00014820702
0.00016012212
0.00017761342
0.00019716588
0.00017420759
0.00013993586
0.00020798747
0.00020586033
0.00022027594
0.00019722736
0.00016725076
0.00014577191
0.00013279938
0.00012550979
0.0001206502
0.00011852598
0.00012444166
0.00014447595
0.00015571642
0.00013169443
9.9057383e-05
0.00023089335
0.0002099569
0.00023246728
0.00020567779
0.00017092606
0.00014426729
0.00012461871
0.00011108193
0.00010371995
0.00010280454
0.0001095377
0.00012209639
0.000142969
0.0003305293
0.00023497499
0.00023786474
0.00022148981
0.00018469052
0.00010962579
0.00012401071
0.0001376134
0.00014894016
0.0001573355
0.00016359692
0.00017303491
0.00020743725
0.00032655475
0.00038103926
0.00039370404
0.0002776322
0.00022098833
0.00033649013
0.00020201322
0.00029188321
0.00023882628
0.00024061138
0.00021056079
0.00018058171
0.0001629582
0.00015599404
0.0001549512
0.00015514362
0.00014898237
0.00016174763
0.00020111416
0.00023165495
0.00018880794
0.00027166532
0.00029673207
0.00029795848
0.00023498972
0.00025161398
0.00021874892
0.00018161433
0.00015397954
0.00013400483
0.00011951764
0.00011038789
0.00011018606
0.00012600401
0.00014865022
0.00014556274
6.5783408e-05
0.00030129282
0.00026357322
0.00026028854
0.00024111615
0.00019727563
0.00011948813
0.00013719984
0.00015548777
0.00017199322
0.00018724287
0.00020387186
0.00023192419
0.00033304918
0.00066957204
0.00042609855
0.00033116469
0.00032382392
0.00052840404
0.00022158029
0.00044970891
0.00085054636
0.0014533264
0.00066460504
0.00040790283
0.00028198086
0.00026457011
0.00022956196
0.00020481432
0.00020076509
0.0002230588
0.00028619465
0.00039387258
0.0003110913
0.0003426272
0.00045312693
0.0005592355
0.00035489228
0.00029825196
0.00046916654
0.00013144885
0.00037970395
0.00063604614
0.00039169253
0.00027661029
0.00027404207
0.00023443862
0.00019836022
0.0001757278
0.00016579084
0.00015964272
0.00014402985
0.00014668943
0.00018335048
0.00023010183
0.00021320475
0.00031808948
0.00061419059
0.00049227417
0.00031277555
0.00028873764
0.00026321609
0.00021367256
0.00013249284
0.0001544493
0.0001785514
0.00020324414
0.00023071722
0.00026491025
0.00033086254
0.00060953952
0.00044658884
0.00039073721
0.00046252143
0.00053679704
0.00077444943
0.00067711526
0.0010748872
0.00094802137
0.00048523616
0.00032619606
0.00029083185
0.00025611206
0.00024345289
0.00026434083
0.00032796147
0.00044859684
0.00080226478
0.00051836747
0.00042577457
0.00050727099
0.00062705664
0.00048648232
0.00052786991
0.00077290186
0.00095262763
0.00045133903
0.00032302993
0.00029706999
0.00025399013
0.00022693692
0.00023554638
0.00032825471
0.00047216221
0.00032313308
0.0003389498
0.00044336877
0.00056027775
0.0003812105
0.00033807623
0.00052863404
0.00017158904
0.00026687462
0.00046907321
0.00097863877
0.0012090417
0.0013562852
0.00037744477
0.00031890748
0.00028530557
0.00023227606
0.00014753875
0.00017417055
0.00020444853
0.00023711976
0.00027007347
0.00033498059
0.00061500388
0.0004634718
0.00047396289
0.0005669406
0.00069109684
0.00089114451
0.0020223297
0.0012081176
0.00054032839
0.00036653152
0.00032061308
0.00029146443
0.0002904699
0.00032024573
0.00041807365
0.00073911625
0.00050938801
0.00055136072
0.00061859382
0.00054203126
0.000533512
0.00190269
0.00094343261
0.00048971338
0.00036522153
0.00032116472
0.00028097408
0.0002715304
0.00031913033
0.00048696006
0.00080268892
0.0005423259
0.00045303158
0.00052514536
0.00058860678
0.00076959336
0.00045407265
0.00044824068
0.001580275
0.0032894083
0.00042972424
0.00034764113
0.00030616253
0.00025190566
0.00016393505
0.00019493396
0.00023005561
0.00026425932
0.00028687497
0.00035711962
0.00064301634
0.00051229757
0.00059722888
0.0007498097
0.00096621081
0.002032108
0.0014486039
0.00057628014
0.00040225868
0.00035497203
0.00033306983
0.00033397025
0.00035429991
0.00045947568
0.00047993707
0.00052546791
0.00056720462
0.00068821385
0.00073345458
0.00084502982
0.0022192196
0.00089024857
0.0005167916
0.00040071256
0.00034877597
0.00031542105
0.00031678547
0.00039294299
0.00067728432
0.00075057863
0.00054449743
0.0005552884
0.00062628061
0.00069682281
0.00064881002
0.00059964726
0.0016486104
0.0038190883
0.00046864481
0.00037419858
0.0003261312
0.00027209328
0.00018142887
0.00021611273
0.00025474047
0.00028814639
0.00030421158
0.00041240348
0.00033007458
0.00053032233
0.00061470172
0.00080097726
0.0010185034
0.0016474321
0.0014912464
0.00059116674
0.00043414823
0.00039287927
0.00037745316
0.00037475212
0.00039004903
0.00052839126
0.00017656118
0.00051415391
0.00056638321
0.00076128879
0.00091549194
0.00096317198
0.001714543
0.00081575047
0.00053356959
0.00043145215
0.00038102131
0.00035352886
0.00035771247
0.00046778671
0.00033306043
0.00059193827
0.00057367933
0.00065012918
0.00073780827
0.00075849722
0.00078230606
0.0019513438
0.0031045814
0.00049461274
0.00039533137
0.00034381226
0.00029144435
0.00019992913
0.00023755451
0.00027888893
0.00031245959
0.00033180341
0.00052411912
1.4292696e-05
8.9877737e-05
0.00056954734
0.00063092061
0.00082286164
0.00099956453
0.0014179696
0.0013614852
0.00059048001
0.00046272905
0.00043157636
0.00042173074
0.00041590863
0.00044309944
0.00066383685
0.0003562228
0.00053044122
0.00057276991
0.00082815967
0.0010136442
0.00093932765
0.0012226768
0.00074015749
0.00054261422
0.0004593655
0.00041579186
0.00039036337
0.00038848806
0.00049821809
0.00028526215
0.00071716003
0.00060488459
0.00067410563
0.00079958334
0.00086873854
0.00086868649
0.0017968782
0.00224973
0.00050250699
0.00040856164
0.00035761947
0.00030827328
0.00021927047
0.00025908721
0.00030257252
0.00033850659
0.00037462278
0.00073513463
4.4165879e-05
7.7145872e-06
2.1417039e-05
4.0652035e-05
0.00012357565
0.00067277353
0.00064324181
0.0008150917
0.00091788909
0.0013162967
0.0011486042
0.00058215768
0.00048735793
0.00046729719
0.00046299994
0.00045943901
0.00053230818
0.00092333462
7.8657057e-05
6.4356367e-05
0.00025890967
0.00055745429
0.00059727047
0.00088203349
0.00098363887
0.00088331778
0.00090720371
0.00067573418
0.00054624185
0.00048397732
0.00044957417
0.00042495806
0.00041853898
0.00054146307
6.3376916e-05
0.00021119469
0.0010880008
0.00070981953
0.00070157929
0.00083887946
0.00090856391
0.00084125003
0.001688387
0.0015279097
0.00049245346
0.00041308428
0.0003661959
0.00032094034
0.00023908662
0.00028027949
0.00032519469
0.00036549526
0.00043677506
0.0011188177
7.7043516e-05
3.6983315e-05
0.00014952902
0.00014740429
0.00014958766
0.00011090192
8.7246571e-05
0.00017168294
0.00077208305
0.00064623709
0.00077624028
0.0007846212
0.0012033518
0.00093620767
0.00057084549
0.00050601341
0.00049579581
0.00049713868
0.0005020731
0.00067334732
0.001302474
0.00013239855
0.00016638508
5.188251e-05
9.4142392e-05
0.00011860177
0.00098288148
0.00058144593
0.00066674645
0.00090809601
0.00079459132
0.00073202457
0.0007221683
0.00062262778
0.00054428119
0.00050256074
0.00047842076
0.00045642567
0.00045314051
0.00063084898
0.00012341091
2.629382e-05
0.00016676513
0.00016054451
0.00073793762
0.00087385531
0.00072648717
0.00083749987
0.00086242683
0.00071786382
0.0015859318
0.0010247152
0.00047054289
0.00040943981
0.00036867063
0.00032813393
0.00025878473
0.00030039955
0.00034557198
0.00039074471
0.00052090874
0.0016265687
0.00015123142
0.00010826889
0.00010198594
8.6516696e-05
0.00010769205
0.00011543121
0.00011220064
0.000217735
0.00076195422
0.00062782024
0.00070277599
0.00063685611
0.00098416964
0.00076724634
0.00055677268
0.00051585581
0.00051311689
0.00051929343
0.00053374634
0.00085427974
0.0018311859
0.00034019305
0.00021579155
0.00042133913
0.00020739084
0.00017705058
0.00075355437
0.00079863883
0.00061054839
0.00071719489
0.00082410677
0.00055348703
0.00057723732
0.00060651603
0.00057562775
0.00053462013
0.00051138284
0.00049798385
0.00048161452
0.00049386937
0.00090177164
0.00014036602
3.8453294e-05
9.743218e-05
0.00018001258
0.00029055869
0.00023174959
0.00023737047
0.00040726044
0.00087017266
0.00071529665
0.00078868098
0.00074321052
0.00055795841
0.0013786166
0.00071664157
0.00044285998
0.00039871004
0.00036472845
0.00032907129
0.00027762933
0.00031856304
0.00036230967
0.00041036903
0.00060267759
0.0019103763
0.00024659345
0.00017799218
0.00010135511
8.4999172e-05
0.00013769195
0.00016461686
0.00019423564
0.00042113381
0.00063182276
0.00057946326
0.00057246773
0.0005186513
0.00075421324
0.00064571303
0.00053743216
0.00051427107
0.00051659026
0.00052599542
0.00054259023
0.00095929736
0.0024660051
0.00057035921
0.00018828751
0.00016117581
0.00031231605
0.00045256766
0.00059099976
0.00063294363
0.00060805807
0.00067502916
0.00062559052
0.00039086984
0.00046512433
0.00052406092
0.0005295938
0.00051507962
0.00050732647
0.00050439273
0.00049575836
0.00052165727
0.0011348664
0.00017579321
7.4169802e-05
9.6668876e-05
0.00012704135
0.00014495493
0.0002271175
0.00043020092
0.00053787671
0.00078343768
0.000658755
0.00069164577
0.00057869595
0.00042212696
0.001005626
0.000539786
0.00041266842
0.00038200286
0.00035455998
0.00032358478
0.00029488178
0.00033412596
0.00037467435
0.00042184193
0.00061588581
0.0019664833
0.0004237244
0.00025269917
0.00010831995
0.00010199284
0.0001767976
0.00024301543
0.00032676593
0.00045168302
0.00049868932
0.00047224387
0.00042331659
0.00043177766
0.00058355596
0.00055733286
0.00051012978
0.00049985493
0.00050542486
0.00051649644
0.00052962557
0.00083246321
0.00302137
0.00082379439
0.00021334372
0.00019077275
0.00026570239
0.00036787288
0.00046772715
0.00052078879
0.00053897618
0.00054186334
0.00041790805
0.0002935527
0.00038686686
0.00045755141
0.00048183223
0.00048498303
0.00048910521
0.00049537827
0.00049688491
0.00052111694
0.0011171501
0.00022775208
9.8971682e-05
0.00013451363
0.00017277579
0.00016184576
0.0002719988
0.00066143938
0.00072710905
0.00062952191
0.00057566428
0.00055389021
0.00040637726
0.00035959653
0.00064953402
0.00043649912
0.00038100093
0.00036036217
0.00033879542
0.00031211687
0.00030985665
0.00034710403
0.00038359917
0.00042772032
0.00055501348
0.0018827755
0.0007588441
0.00035520515
0.00012567076
0.00011164827
0.00018851786
0.00026224861
0.00033382215
0.00038254859
0.00037990306
0.00034752033
0.00031761798
0.00036856359
0.00047180817
0.00048689147
0.00047392619
0.00047294998
0.00048066693
0.00049245523
0.00050805851
0.00064133889
0.0026629375
0.0012353614
0.00026106451
0.00021412909
0.00025709735
0.00031487624
0.00037007617
0.00040745465
0.00041957601
0.00038433008
0.00027459225
0.00023665431
0.00032963872
0.00040111644
0.00043279289
0.0004460393
0.00045850615
0.00047338693
0.00048816701
0.00051746938
0.00088431649
0.00049838629
0.0002120758
0.0002250325
0.00025830739
0.00023763558
0.00032755909
0.00085751908
0.00067940999
0.00049610786
0.00045793099
0.00039029413
0.0002686231
0.00032524916
0.00044086749
0.00037007591
0.00034817238
0.00033492297
0.00031846396
0.00029564779
0.00032162319
0.00035753602
0.00039007061
0.00043089484
0.00051086108
0.0014338969
0.0012437238
0.0005046137
0.00016109133
0.00011356426
0.00017319844
0.00023733727
0.00029121686
0.00030249004
0.00028471493
0.00026081084
0.000262651
0.00032173085
0.00039565754
0.00042521752
0.00043022032
0.00043568532
0.0004448189
0.00045765606
0.00047838442
0.00053869392
0.0013535002
0.0021851297
0.00031569472
0.00022039114
0.0002370984
0.0002586578
0.00028001875
0.00029762553
0.00029873307
0.0002663302
0.00020229658
0.00020559031
0.00029151193
0.00035885935
0.00038730916
0.00040420471
0.0004213189
0.0004412829
0.00046589739
0.00051209803
0.00073855842
0.00066355362
0.00048085869
0.00039974371
0.00034402893
0.00030556006
0.00036665905
0.00098932739
0.00054756141
0.00036696968
0.00032042046
0.00024768887
0.00019728752
0.00027909025
0.00033399982
0.00032113299
0.00031479824
0.0003070585
0.00029494278
0.00027556571
0.00032933266
0.00036440307
0.00039283623
0.00042945534
0.0004903225
0.00098782566
0.0013556466
0.00069312584
0.00023319291
0.00012463552
0.00020950869
0.0002761607
0.00027101243
0.00024647859
0.00022617492
0.00021644991
0.00023411301
0.00028411867
0.00033789611
0.00036897493
0.00038221095
0.00039157251
0.00040145688
0.0004153768
0.00043711177
0.00047141563
0.00073912285
0.0017598521
0.0003899213
0.00022519246
0.00021951546
0.00021493116
0.00021406347
0.0002196545
0.00022790718
0.00024908267
0.00021912749
0.00021589179
0.00028658407
0.00035419337
0.00035453237
0.00036478276
0.00038217887
0.00040351616
0.00043378477
0.00051198591
0.00085812277
0.00091524806
0.00068746426
0.00051699876
0.00037887583
0.0002721656
0.00026150057
0.00082406027
0.00040261692
0.00025440182
0.00020918976
0.00016275783
0.0001692286
0.0002374788
0.00027429775
0.00028103126
0.00028200042
0.00027835437
0.00026983518
0.00025348512
0.00033270577
0.00036700688
0.00039104822
0.00042224324
0.00047506544
0.00079712234
0.0014289781
0.00088263274
0.0003853309
0.00049759504
0.00034573709
0.0002142207
0.00019375346
0.00019355317
0.00021386429
0.00025152594
0.00029061369
0.00031805193
0.00033373673
0.00034472504
0.00035465479
0.00036857401
0.00038765031
0.0004093529
0.00050167313
0.00092297227
0.00051799256
0.00022967105
0.00021821874
0.00020069289
0.00019167527
0.0002083852
0.00023509331
0.00034948139
0.00034202134
0.00058705493
0.00037917712
0.00033826049
0.00034838686
0.00036906663
0.00040579185
0.00064358868
0.0029199221
7.8743611e-05
9.216748e-05
0.00042839762
0.00026861916
0.00017693156
0.0001432296
0.00012661531
0.00015522539
0.0002055037
0.00023457177
0.00024664568
0.00025109411
0.00025040195
0.00024476608
0.00023103512
0.00033215536
0.0003655083
0.00038511318
0.00041051073
0.00046218697
0.00087969492
0.0034559213
0.00065418146
0.00019121338
0.00017284384
0.00017733508
0.00019528574
0.00022264731
0.0002509913
0.00027326507
0.00028814748
0.00029895185
0.00030835498
0.00032112324
0.00033641805
0.00035032252
0.00038386122
0.00053301201
0.00055695409
0.00021910683
0.00022735679
0.0002056495
0.0002196336
0.0007813711
0.00040042035
0.00032766871
0.00032448565
0.00034214097
0.00038955073
0.00083746643
0.00011558372
0.00027890722
0.00018392368
0.0001324309
0.00011221455
0.000113679
0.000144002
0.00018077248
0.00020438283
0.00021708839
0.00022317491
0.00022453514
0.00022115497
0.00020966151
0.00032863746
0.00036093896
0.00037684208
0.00039782867
0.00045555152
0.0010181932
0.00038695864
0.00017038381
0.00015711127
0.00016302269
0.00017759513
0.00019745968
0.00021799747
0.00023514758
0.00024766492
0.00025710169
0.00026555203
0.00027671117
0.00028879926
0.00029810372
0.00031024128
0.00036072423
0.00041450633
0.00018616507
0.00021691048
0.00018466573
0.00016427311
0.00050906916
0.00037070303
0.00031350892
0.00030824105
0.00032054831
0.00036465692
0.00075342791
0.00010836933
0.00019294442
0.00013784381
0.00010994129
9.9782892e-05
0.00010803412
0.00013342762
0.00016080644
0.00018008715
0.00019205503
0.00019888212
0.00020165587
0.00020005458
0.00019049323
0.00032321058
0.00035448655
0.00036743719
0.00038441494
0.00043586655
0.0008916431
0.00028659969
0.00015729265
0.00014697332
0.00015119014
0.00016198244
0.00017629013
0.00019104844
0.00020367801
0.00021333979
0.00022090335
0.00022823451
0.00023788607
0.00024777573
0.00025462236
0.00025867014
0.00027137129
0.00027505227
0.00015914371
0.00019095617
0.00016873175
0.00014539439
0.00030478065
0.00035870442
0.00030433537
0.00029977534
0.00030507129
0.00034107403
0.00066881311
0.00013832271
0.0001457737
0.00011620665
0.00010064092
9.541435e-05
0.00010410938
0.0001237087
0.00014447863
0.00016030605
0.00017125728
0.00017842683
0.0001822391
0.00018212438
0.0001743108
0.00031689474
0.00034703476
0.0003575333
0.00037054998
0.00040770075
0.00075145107
0.00016519281
0.00027389725
0.00016371592
0.0001482897
0.00014583706
0.00015104393
0.00016013169
0.00017005938
0.0001786734
0.00018564212
0.00019150073
0.00019765989
0.00020601627
0.00021437546
0.00021985179
0.00022097857
0.00021927744
0.00019797998
0.00013477699
0.00015617787
0.00016381258
0.00014813847
0.00019450149
0.00037238431
0.00030455395
0.00029924256
0.00029604685
0.000323174
0.00059962303
0.00018573487
0.00013300647
0.00011430041
0.00010118661
9.5801904e-05
0.00010166039
0.00011592171
0.00013181093
0.00014486154
0.00015488271
0.00016225058
0.00016686535
0.00016798841
0.00016173636
0.00031067344
0.00033955057
0.00034823792
0.00035795639
0.00037916413
0.00064728779
0.00067660343
0.00012401383
0.00027515111
0.00021929779
0.00018411733
0.00016053013
0.00015283079
0.00015325078
0.00015758501
0.00016190324
0.00016596243
0.00016990315
0.00017476157
0.00018178728
0.0001887928
0.00019351745
0.00019473494
0.00019097423
0.00016681182
0.00012502059
0.00013313981
0.0001719351
0.00018564419
0.00031447084
0.00031800684
0.00024697224
0.00041550731
0.00031463739
0.00030553356
0.00029326834
0.00031249587
0.00055479194
0.00026137904
8.5711272e-05
0.00021152927
0.00017086826
0.00014454933
0.00011889452
0.00010680484
0.0001049932
0.00011392899
0.00012677668
0.00013646528
0.00014491937
0.00015192029
0.00015677116
0.00015854892
0.00015336262
0.00030544868
0.00033311791
0.00034095305
0.0003491124
0.00035955293
0.00058140865
0.0021747838
0.0016293736
0.0006959951
0.00035289771
0.00032130025
0.00031314755
0.00028205643
0.000348137
0.00039360984
0.00026410807
0.00021305957
0.00017747466
0.00016967209
0.00016034324
0.00015738564
0.00015779683
0.0001606105
0.00016587577
0.00017221753
0.00017835016
0.00018565425
0.00020245378
0.0002148183
0.00016576162
0.00013657161
0.00018258278
0.00022918904
0.00025471525
0.00043328597
0.00018593937
0.00080386991
0.0011326492
0.0010366606
0.00046947234
0.0003323924
0.00031654312
0.000295948
0.00031104674
0.00057449515
0.00088410892
0.0013032875
0.00075830737
0.0003405476
0.00031303346
0.00026869345
0.00023242064
0.00027389892
0.00029497889
0.00019663088
0.00016920921
0.00013454273
0.00013258971
0.00014425447
0.0001413617
0.00014425027
0.00014904699
0.00015295799
0.00015441423
0.00014948665
0.000301891