/*--------------------------------*- C++ -*----------------------------------*\
  =========                 |
  \\      /  F ield         | OpenFOAM: The Open Source CFD Toolbox
   \\    /   O peration     | Website:  https://openfoam.org
    \\  /    A nd           | Version:  7
     \\/     M anipulation  |
\*---------------------------------------------------------------------------*/
FoamFile
{
    version     2.0;
    format      ascii;
    class       volScalarField;
    location    "50/fluid";
    object      k;
}
// * * * * * * * * * * * * * * * * * * * * * * * * * * * * * * * * * * * * * //

dimensions      [0 2 -2 0 0 0 0];

internalField   nonuniform List<scalar> 
17240
(
2.8611309e-05
5.5522973e-05
5.5523e-05
5.5523042e-05
5.5523097e-05
5.5523164e-05
5.5523239e-05
5.5523314e-05
5.5523378e-05
5.5523413e-05
5.55234e-05
5.5523316e-05
5.5523156e-05
5.5522938e-05
5.5522714e-05
5.5522553e-05
5.5522517e-05
5.552262e-05
5.5522828e-05
5.5523064e-05
5.552325e-05
5.5523346e-05
5.5523349e-05
5.552329e-05
5.5523203e-05
5.5523117e-05
5.5523046e-05
5.5522997e-05
5.5522965e-05
5.5522944e-05
5.552292e-05
5.5522885e-05
5.5522831e-05
5.5522763e-05
5.5522695e-05
5.5522653e-05
5.5522662e-05
5.552274e-05
5.5522879e-05
5.5523051e-05
5.5523211e-05
5.5523325e-05
5.5523369e-05
5.5523353e-05
5.5523291e-05
5.5523209e-05
5.5523124e-05
5.552305e-05
5.552299e-05
5.5522943e-05
5.5522903e-05
5.5522863e-05
5.5522821e-05
5.5522776e-05
5.5522739e-05
5.5522721e-05
5.552274e-05
5.5522802e-05
5.5522902e-05
5.5523015e-05
5.5523113e-05
5.5523169e-05
5.5523177e-05
5.5523148e-05
5.5523104e-05
5.552307e-05
1.1149382e-05
1.6969588e-05
1.6969516e-05
1.6969348e-05
1.6969055e-05
1.6968547e-05
1.6967644e-05
1.6966047e-05
1.696333e-05
1.6958988e-05
1.6952562e-05
1.694387e-05
1.6933289e-05
1.6921988e-05
1.6911881e-05
1.690519e-05
1.6903653e-05
1.6907649e-05
1.6917096e-05
1.6930026e-05
1.6943852e-05
1.6956293e-05
1.6965967e-05
1.6972414e-05
1.6975859e-05
1.6976851e-05
1.6975981e-05
1.697372e-05
1.6970354e-05
1.6966021e-05
1.6960602e-05
1.6954092e-05
1.6946642e-05
1.6938702e-05
1.6931111e-05
1.6924932e-05
1.6921244e-05
1.6920996e-05
1.6924468e-05
1.6931165e-05
1.6939938e-05
1.6949337e-05
1.6957998e-05
1.6964968e-05
1.6969777e-05
1.6972388e-05
1.6973022e-05
1.6971996e-05
1.6969604e-05
1.6966063e-05
1.6961519e-05
1.6956103e-05
1.6950019e-05
1.6943649e-05
1.693761e-05
1.6932747e-05
1.6930002e-05
1.6930173e-05
1.6933621e-05
1.6940075e-05
1.6948641e-05
1.6958028e-05
1.696694e-05
1.6974354e-05
1.697965e-05
1.6982551e-05
5.9210743e-06
7.8985381e-06
7.8983934e-06
7.8980949e-06
7.8975911e-06
7.8967305e-06
7.895205e-06
7.8924954e-06
7.8878548e-06
7.8803829e-06
7.869257e-06
7.8541364e-06
7.8356729e-06
7.8159071e-06
7.7981739e-06
7.7863308e-06
7.7834485e-06
7.7903691e-06
7.8068646e-06
7.8295335e-06
7.853836e-06
7.8757415e-06
7.8927644e-06
7.9040755e-06
7.9100698e-06
7.9117366e-06
7.9101479e-06
7.9061543e-06
7.9002613e-06
7.8927191e-06
7.8833171e-06
7.872014e-06
7.8590443e-06
7.8451699e-06
7.8318345e-06
7.8208975e-06
7.8143235e-06
7.8137689e-06
7.8197468e-06
7.8314188e-06
7.8467972e-06
7.8633366e-06
7.8786236e-06
7.8909353e-06
7.8994225e-06
7.904012e-06
7.9051083e-06
7.903289e-06
7.8990879e-06
7.8928951e-06
7.8849655e-06
7.8755103e-06
7.8648811e-06
7.8537179e-06
7.8430803e-06
7.8344617e-06
7.8295205e-06
7.829682e-06
7.8356218e-06
7.8469066e-06
7.8619881e-06
7.8785933e-06
7.8943979e-06
7.9075643e-06
7.9169831e-06
7.9221932e-06
3.7519866e-06
4.6344456e-06
4.634277e-06
4.6339351e-06
4.6333645e-06
4.6323869e-06
4.6306205e-06
4.6274008e-06
4.6217474e-06
4.6124526e-06
4.5983832e-06
4.5790272e-06
4.555188e-06
4.5295029e-06
4.5063053e-06
4.4905997e-06
4.4865095e-06
4.4954022e-06
4.5168459e-06
4.5464136e-06
4.5781236e-06
4.6066485e-06
4.6286802e-06
4.6431379e-06
4.6505974e-06
4.6524397e-06
4.650141e-06
4.6448535e-06
4.6372541e-06
4.6276552e-06
4.6157292e-06
4.6013485e-06
4.5847421e-06
4.5668431e-06
4.5494895e-06
4.5351149e-06
4.5264068e-06
4.5255454e-06
4.5332129e-06
4.5483459e-06
4.5683732e-06
4.5899659e-06
4.6099281e-06
4.6259491e-06
4.6369009e-06
4.6427133e-06
4.64397e-06
4.6414817e-06
4.6359815e-06
4.6279861e-06
4.6177965e-06
4.6056775e-06
4.5920161e-06
4.5775871e-06
4.5637177e-06
4.552376e-06
4.5457443e-06
4.5457304e-06
4.5532852e-06
4.5679123e-06
4.5876214e-06
4.6094144e-06
4.6301731e-06
4.6474401e-06
4.6597582e-06
4.6665526e-06
2.6520127e-06
3.1203116e-06
3.1202052e-06
3.1199234e-06
3.1194286e-06
3.1185409e-06
3.1168392e-06
3.1135521e-06
3.1074973e-06
3.0971692e-06
3.0811013e-06
3.058554e-06
3.0303992e-06
2.9997619e-06
2.9718264e-06
2.9525549e-06
2.9471299e-06
2.9577089e-06
2.9834136e-06
3.018895e-06
3.0568778e-06
3.0908707e-06
3.1168221e-06
3.133461e-06
3.1416138e-06
3.1431126e-06
3.1398667e-06
3.133328e-06
3.1243873e-06
3.1133543e-06
3.0996857e-06
3.0830983e-06
3.0637361e-06
3.042613e-06
3.0218758e-06
3.0045051e-06
2.9938764e-06
2.9927529e-06
3.0018602e-06
3.0199457e-06
3.043948e-06
3.0698592e-06
3.0937651e-06
3.1128019e-06
3.125599e-06
3.1321395e-06
3.1332377e-06
3.129973e-06
3.1232883e-06
3.1138129e-06
3.1018558e-06
3.0877401e-06
3.0717476e-06
3.0547083e-06
3.0381616e-06
3.0244114e-06
3.0162338e-06
3.0159339e-06
3.0247519e-06
3.0421907e-06
3.0659027e-06
3.0922172e-06
3.1172492e-06
3.1379601e-06
3.1526089e-06
3.160549e-06
2.01737e-06
2.2961471e-06
2.2963103e-06
2.2963037e-06
2.2961342e-06
2.2956435e-06
2.2943999e-06
2.2915496e-06
2.285712e-06
2.2750459e-06
2.2576661e-06
2.2324996e-06
2.2004108e-06
2.1649955e-06
2.1322857e-06
2.1091471e-06
2.1021304e-06
2.1147856e-06
2.145014e-06
2.1863449e-06
2.2303669e-06
2.2693949e-06
2.2985772e-06
2.316498e-06
2.3243877e-06
2.3247018e-06
2.3198991e-06
2.311784e-06
2.3016908e-06
2.2896998e-06
2.2748466e-06
2.2565928e-06
2.2348993e-06
2.2107854e-06
2.1866845e-06
2.1662055e-06
2.1536423e-06
2.1525499e-06
2.1633816e-06
2.1846371e-06
2.2127662e-06
2.2430566e-06
2.2708041e-06
2.2925387e-06
2.3066703e-06
2.3133344e-06
2.3137042e-06
2.3092303e-06
2.3011189e-06
2.2901077e-06
2.2766134e-06
2.2608457e-06
2.2428481e-06
2.2234215e-06
2.2042799e-06
2.188087e-06
2.1784295e-06
2.1779355e-06
2.1881402e-06
2.2085639e-06
2.2364842e-06
2.2674471e-06
2.2966788e-06
2.3205252e-06
2.3370307e-06
2.3455372e-06
1.6195731e-06
1.7992085e-06
1.8000737e-06
1.8007729e-06
1.8013926e-06
1.8018193e-06
1.801642e-06
1.7999541e-06
1.7951796e-06
1.7850881e-06
1.7672593e-06
1.7401638e-06
1.7046253e-06
1.6647713e-06
1.6273938e-06
1.6000172e-06
1.5916614e-06
1.6084355e-06
1.6441498e-06
1.6902389e-06
1.7395355e-06
1.7828498e-06
1.8141555e-06
1.8318493e-06
1.8378e-06
1.8353883e-06
1.8278225e-06
1.8173946e-06
1.8064317e-06
1.7940683e-06
1.7786764e-06
1.7593191e-06
1.7356413e-06
1.7085855e-06
1.68089e-06
1.6568872e-06
1.6422868e-06
1.6421202e-06
1.655625e-06
1.6808459e-06
1.7138532e-06
1.7490527e-06
1.7807715e-06
1.8048266e-06
1.8194557e-06
1.8251428e-06
1.8236637e-06
1.8170319e-06
1.8068116e-06
1.793896e-06
1.7791133e-06
1.7619859e-06
1.7422135e-06
1.7204764e-06
1.6986393e-06
1.6798577e-06
1.6687513e-06
1.6686637e-06
1.6810705e-06
1.705451e-06
1.738549e-06
1.7747803e-06
1.8082773e-06
1.834755e-06
1.8521946e-06
1.8600742e-06
1.3573337e-06
1.4803164e-06
1.482565e-06
1.4846273e-06
1.4867029e-06
1.4887387e-06
1.4903796e-06
1.4907179e-06
1.4880268e-06
1.4796988e-06
1.4627862e-06
1.4354744e-06
1.3990694e-06
1.3587284e-06
1.3205956e-06
1.2902087e-06
1.2847313e-06
1.3185293e-06
1.3609901e-06
1.3962423e-06
1.4435872e-06
1.4876394e-06
1.5183999e-06
1.5331415e-06
1.5343711e-06
1.5267464e-06
1.5144815e-06
1.5007947e-06
1.4894141e-06
1.4774314e-06
1.46237e-06
1.442738e-06
1.4177438e-06
1.3882297e-06
1.3573393e-06
1.3301852e-06
1.3137632e-06
1.3167022e-06
1.3342272e-06
1.363555e-06
1.4021891e-06
1.4426309e-06
1.478116e-06
1.5036402e-06
1.517293e-06
1.5201539e-06
1.5149631e-06
1.5045888e-06
1.4910939e-06
1.4759741e-06
1.4601687e-06
1.4420546e-06
1.4208545e-06
1.397053e-06
1.3726639e-06
1.3513429e-06
1.3390302e-06
1.3409065e-06
1.3574271e-06
1.3878148e-06
1.4278424e-06
1.4698197e-06
1.5070933e-06
1.5349579e-06
1.5515192e-06
1.5566232e-06
1.1789133e-06
1.2683213e-06
1.2727208e-06
1.2768364e-06
1.2809833e-06
1.2851577e-06
1.2890889e-06
1.2919501e-06
1.292004e-06
1.2864907e-06
1.2725102e-06
1.2498357e-06
1.2247205e-06
1.2084493e-06
1.1967336e-06
1.16456e-06
1.1891668e-06
1.3276419e-06
1.3950087e-06
1.2842531e-06
1.2888371e-06
1.3196926e-06
1.3434883e-06
1.3509843e-06
1.3437322e-06
1.3276859e-06
1.3083124e-06
1.2907713e-06
1.2791544e-06
1.2682157e-06
1.2544375e-06
1.235757e-06
1.2111362e-06
1.1819066e-06
1.1522861e-06
1.127438e-06
1.1119495e-06
1.1301314e-06
1.1489148e-06
1.1721646e-06
1.2152075e-06
1.2583238e-06
1.2951949e-06
1.3200937e-06
1.3305493e-06
1.3281121e-06
1.3167865e-06
1.3006432e-06
1.2824734e-06
1.265149e-06
1.2485355e-06
1.2298815e-06
1.2079348e-06
1.1830977e-06
1.1578273e-06
1.1365768e-06
1.1262696e-06
1.1326444e-06
1.1569504e-06
1.1969491e-06
1.2462501e-06
1.2901781e-06
1.327397e-06
1.3536624e-06
1.366489e-06
1.365867e-06
1.0535074e-06
1.1235053e-06
1.1306355e-06
1.1372269e-06
1.1436505e-06
1.1498952e-06
1.1557878e-06
1.1607128e-06
1.1632107e-06
1.1609606e-06
1.1530622e-06
1.1485585e-06
1.177781e-06
1.2735692e-06
1.3797231e-06
1.1220181e-06
9.0066369e-07
7.9643821e-07
1.0371107e-06
1.1641348e-06
1.2313222e-06
1.2497799e-06
1.245218e-06
1.2252795e-06
1.1974991e-06
1.1687632e-06
1.1470943e-06
1.1347357e-06
1.1249252e-06
1.1131156e-06
1.0971364e-06
1.0773393e-06
1.0598444e-06
1.0551544e-06
1.0625355e-06
1.0478125e-06
1.18547e-06
1.1514277e-06
1.0892922e-06
1.1399787e-06
1.1707622e-06
1.1978605e-06
1.2157636e-06
1.2193552e-06
1.2086697e-06
1.1886072e-06
1.1646416e-06
1.1407329e-06
1.1211549e-06
1.1035848e-06
1.0847611e-06
1.0633182e-06
1.0405388e-06
1.0217685e-06
1.0161855e-06
1.0363359e-06
1.0483747e-06
1.0866224e-06
1.1456205e-06
1.2134892e-06
1.2224571e-06
1.2378576e-06
1.2536672e-06
1.2585005e-06
1.2490202e-06
9.6074335e-07
1.0204165e-06
1.030658e-06
1.0398887e-06
1.0483969e-06
1.0560698e-06
1.062869e-06
1.0686499e-06
1.0727886e-06
1.0742338e-06
1.0739963e-06
1.0732759e-06
1.0245783e-06
8.3655778e-07
6.3900467e-07
9.825835e-07
1.1551325e-06
1.2047452e-06
1.1883242e-06
1.1514838e-06
1.1089444e-06
1.0699643e-06
1.042956e-06
1.0286402e-06
1.0193907e-06
1.0100745e-06
1.0000727e-06
9.9776117e-07
1.030551e-06
1.1153195e-06
1.1916165e-06
8.1415407e-07
5.6238552e-07
8.6487994e-07
1.1387071e-06
1.1626318e-06
1.1747144e-06
1.1706194e-06
1.1589562e-06
1.1353663e-06
1.1034776e-06
1.0696592e-06
1.0395725e-06
1.0166992e-06
9.9752294e-07
9.7886718e-07
9.6020447e-07
9.4767403e-07
9.6301613e-07
1.0463326e-06
1.2813377e-06
1.2137612e-06
1.228697e-06
1.3665574e-06
1.6421981e-06
1.3509948e-06
1.2382423e-06
1.2121598e-06
1.200712e-06
1.1789562e-06
8.8821698e-07
9.4315197e-07
9.5728595e-07
9.6968353e-07
9.8031928e-07
9.8886663e-07
9.9555539e-07
1.0012411e-06
1.0071192e-06
1.0136491e-06
1.0149009e-06
9.6715007e-07
7.7926099e-07
6.9614925e-07
1.0351722e-06
1.1772714e-06
1.1596266e-06
1.1031392e-06
1.043942e-06
9.9470039e-07
9.6090825e-07
9.4373797e-07
9.3470949e-07
9.2945265e-07
9.3133998e-07
9.5117222e-07
9.4421474e-07
7.6491325e-07
6.39828e-07
9.4079992e-07
1.139246e-06
1.1684227e-06
1.1362173e-06
1.0919923e-06
1.0437603e-06
9.9773397e-07
9.6051497e-07
9.3279426e-07
9.1164987e-07
8.9435238e-07
8.8176452e-07
8.8162095e-07
8.842266e-07
7.7493705e-07
9.5650303e-07
1.1711981e-06
1.2186251e-06
1.2019162e-06
1.1733978e-06
1.1350372e-06
8.3150792e-07
8.8524083e-07
9.0534763e-07
9.2258075e-07
9.3627335e-07
9.4577371e-07
9.5185237e-07
9.5720826e-07
9.6626644e-07
9.8073852e-07
9.7971768e-07
8.766185e-07
6.3391351e-07
5.0350011e-07
9.4945749e-07
1.1474038e-06
1.1416361e-06
1.0682958e-06
9.9521757e-07
9.3522484e-07
8.9545032e-07
8.7592249e-07
8.6775231e-07
8.6982139e-07
8.8861509e-07
9.0251877e-07
7.5894895e-07
6.8663391e-07
1.0387199e-06
1.1768691e-06
1.1391778e-06
1.0688109e-06
9.9980606e-07
9.4060336e-07
8.9386865e-07
8.6046722e-07
8.3879517e-07
8.2605436e-07
8.1700348e-07
7.800512e-07
6.4873783e-07
3.8887901e-07
1.0760716e-06
1.1318405e-06
1.1889837e-06
1.1644535e-06
1.1057086e-06
7.9273881e-07
8.4842502e-07
8.7810154e-07
9.0301699e-07
9.2158044e-07
9.3284495e-07
9.3865469e-07
9.4483359e-07
9.6098224e-07
9.8869789e-07
9.9696085e-07
8.6060119e-07
5.9357863e-07
3.7177126e-07
9.3996151e-07
1.1478541e-06
1.1365347e-06
1.0489359e-06
9.6356266e-07
8.966967e-07
8.5539734e-07
8.348781e-07
8.2803207e-07
8.3960023e-07
8.7569399e-07
8.7145991e-07
6.386469e-07
5.1938112e-07
9.8067847e-07
1.1811698e-06
1.1514006e-06
1.059061e-06
9.7199028e-07
8.9809063e-07
8.4042682e-07
8.0209665e-07
7.8331427e-07
7.8078591e-07
7.7365605e-07
7.0816413e-07
6.0675202e-07
8.8672529e-07
1.0673885e-06
1.1874988e-06
1.1744717e-06
1.0907638e-06
7.7655062e-07
8.3800712e-07
8.8144703e-07
9.1747362e-07
9.4382908e-07
9.6006844e-07
9.7108701e-07
9.913699e-07
1.0454509e-06
1.1084506e-06
1.1441497e-06
9.8023023e-07
6.8664799e-07
4.1839147e-07
1.0216621e-06
1.1918301e-06
1.1534237e-06
1.0508221e-06
9.6010245e-07
8.9801836e-07
8.6434138e-07
8.4600874e-07
8.3901273e-07
8.6224365e-07
9.276303e-07
9.2120641e-07
6.5053109e-07
1.9315115e-07
5.663348e-07
1.0017708e-06
1.2151398e-06
1.1770271e-06
1.0678094e-06
9.6506605e-07
8.7819915e-07
8.1108991e-07
7.6933386e-07
7.5659554e-07
7.7442998e-07
7.9313336e-07
6.6864013e-07
6.8736202e-07
1.0683001e-06
1.2138616e-06
1.2075535e-06
1.0957497e-06
7.8547342e-07
8.5704498e-07
9.1792507e-07
9.6931289e-07
1.0104582e-06
1.0462697e-06
1.0979485e-06
1.2444785e-06
1.6829794e-06
1.8634797e-06
1.8623313e-06
1.4077567e-06
1.0719853e-06
6.7133783e-07
4.0589587e-07
7.6533711e-07
1.181728e-06
1.2719358e-06
1.19383e-06
1.0827318e-06
1.0054263e-06
9.7524798e-07
9.8074636e-07
9.9735024e-07
9.8335697e-07
1.0359785e-06
1.1636806e-06
1.2146827e-06
9.2060605e-07
5.4967452e-07
5.8386655e-07
9.6002741e-07
1.1206333e-06
1.2876657e-06
1.2208783e-06
1.0972637e-06
9.8729778e-07
8.9892293e-07
8.3123948e-07
7.8673554e-07
7.8120647e-07
8.3598494e-07
8.8960728e-07
7.0248632e-07
1.3920824e-07
6.9243597e-07
1.1583849e-06
1.2847306e-06
1.266908e-06
1.1248426e-06
8.1749845e-07
9.0322673e-07
9.8447866e-07
1.0580096e-06
1.128946e-06
1.1971201e-06
1.222364e-06
1.1673626e-06
1.4014278e-06
1.6616527e-06
1.5139236e-06
1.2122183e-06
1.0592272e-06
4.6251645e-07
9.7081705e-07
1.8244069e-06
3.044326e-06
1.9680048e-06
1.4030754e-06
1.3877495e-06
1.370559e-06
1.2564643e-06
1.1568477e-06
1.1355997e-06
1.2307184e-06
1.4805392e-06
1.8711139e-06
1.6323619e-06
1.7468247e-06
2.0682458e-06
2.2945564e-06
1.5751268e-06
1.1006645e-06
9.4058982e-07
2.5475247e-07
8.6799444e-07
2.0389488e-06
1.4462317e-06
1.3131217e-06
1.3832953e-06
1.2783377e-06
1.1504117e-06
1.0584131e-06
1.0170975e-06
9.9802413e-07
9.4015486e-07
9.511502e-07
1.0775761e-06
1.202381e-06
1.0025653e-06
6.3908847e-07
1.3412172e-06
1.3629456e-06
1.3521109e-06
1.3971488e-06
1.3479988e-06
1.176782e-06
8.6687768e-07
9.6949566e-07
1.0730033e-06
1.1757371e-06
1.2776693e-06
1.3038743e-06
1.114294e-06
1.2689219e-06
1.6308403e-06
1.6008848e-06
1.660676e-06
1.7780865e-06
3.3842372e-06
4.6419773e-06
6.8059275e-06
3.6449417e-06
1.9065373e-06
1.5930303e-06
1.4750024e-06
1.3442007e-06
1.2833763e-06
1.345587e-06
1.4762932e-06
1.4214686e-06
1.6797373e-06
1.8083634e-06
1.653245e-06
1.6875808e-06
1.2603568e-06
1.0429557e-06
3.4196413e-06
5.3963789e-06
3.5472015e-06
1.8306317e-06
1.5275029e-06
1.4835339e-06
1.347712e-06
1.2450677e-06
1.2689297e-06
1.5825369e-06
2.0555587e-06
1.6326504e-06
1.6921102e-06
1.9959119e-06
2.2643697e-06
1.6488241e-06
1.2051066e-06
1.0597165e-06
3.5557783e-07
5.7003671e-07
1.005232e-06
2.1379921e-06
7.4610462e-06
4.3432503e-06
1.6393711e-06
1.5337425e-06
1.4405464e-06
1.2460663e-06
9.2705294e-07
1.046791e-06
1.1704584e-06
1.2928883e-06
1.3643342e-06
1.2246349e-06
1.2728275e-06
1.6125473e-06
1.8355004e-06
2.1521062e-06
2.8615033e-06
4.4410089e-06
1.051771e-05
4.7465537e-06
2.2843464e-06
1.769618e-06
1.5842312e-06
1.4590507e-06
1.4328576e-06
1.4796835e-06
1.4262941e-06
1.5365401e-06
1.7987102e-06
2.0259757e-06
2.0279882e-06
2.0193089e-06
3.0631773e-06
9.4317491e-06
3.8138152e-06
2.1123243e-06
1.7190993e-06
1.5800469e-06
1.4361274e-06
1.3840916e-06
1.470463e-06
1.5768073e-06
1.676898e-06
1.8664904e-06
1.7267904e-06
1.7763294e-06
1.8913857e-06
3.3164765e-06
3.5690884e-06
3.6378116e-06
9.5365503e-06
1.1424296e-05
1.9259806e-06
1.6767261e-06
1.5368702e-06
1.3270515e-06
9.9352768e-07
1.1278501e-06
1.26421e-06
1.3799345e-06
1.3851519e-06
1.2121814e-06
1.3166643e-06
1.8209778e-06
2.3494822e-06
3.140509e-06
4.587326e-06
1.0385715e-05
5.8031312e-06
2.535667e-06
1.9130638e-06
1.7024076e-06
1.5931699e-06
1.5663269e-06
1.5464376e-06
1.4414938e-06
9.9295425e-07
1.8019926e-06
2.1770384e-06
2.5770941e-06
2.9822895e-06
4.4200176e-06
9.9814255e-06
3.8254522e-06
2.3054183e-06
1.870581e-06
1.6772743e-06
1.5425787e-06
1.5095105e-06
1.5940873e-06
1.8209798e-06
1.557775e-06
1.8553213e-06
2.0402923e-06
2.2961603e-06
2.8675948e-06
3.4166422e-06
3.8534673e-06
9.2528346e-06
1.3205416e-05
2.1744186e-06
1.8160579e-06
1.6348081e-06
1.416472e-06
1.0644277e-06
1.2100816e-06
1.3538212e-06
1.4571468e-06
1.4292706e-06
1.3622098e-06
6.6935416e-07
1.8476662e-06
2.497144e-06
3.4733098e-06
4.895909e-06
8.9429725e-06
6.2329726e-06
2.6655698e-06
2.0318933e-06
1.8312645e-06
1.7391181e-06
1.6944846e-06
1.6390482e-06
1.6053421e-06
3.6293855e-07
1.8373045e-06
2.2932157e-06
3.0726897e-06
3.9970437e-06
5.3888536e-06
7.9714624e-06
3.6729173e-06
2.4178701e-06
1.9898952e-06
1.7827642e-06
1.6578527e-06
1.6085717e-06
1.5986548e-06
6.8334635e-07
1.8885891e-06
2.1381574e-06
2.5313191e-06
3.0930479e-06
3.6818515e-06
4.4225236e-06
1.0118154e-05
1.1160966e-05
2.3600838e-06
1.9354189e-06
1.7275999e-06
1.5083432e-06
1.1392622e-06
1.2935863e-06
1.4431695e-06
1.5422146e-06
1.5284104e-06
1.7028103e-06
2.8224237e-08
4.524291e-07
2.1273447e-06
2.7194787e-06
3.7717085e-06
5.0394792e-06
8.0477653e-06
6.0034144e-06
2.707805e-06
2.1371714e-06
1.9685892e-06
1.8937825e-06
1.8369072e-06
1.8127342e-06
1.9878752e-06
7.0617955e-07
2.0656748e-06
2.4856114e-06
3.5948238e-06
4.8481965e-06
5.7570878e-06
6.0079903e-06
3.4460239e-06
2.4753099e-06
2.0931818e-06
1.8981468e-06
1.7743868e-06
1.6902224e-06
1.6188239e-06
5.769357e-07
2.3449574e-06
2.3146257e-06
2.7474875e-06
3.4546917e-06
4.1789241e-06
4.8256864e-06
9.4250328e-06
8.7764073e-06
2.4556555e-06
2.0233178e-06
1.8082952e-06
1.5957616e-06
1.2177528e-06
1.3786843e-06
1.5345882e-06
1.6425487e-06
1.6997056e-06
2.3581241e-06
8.7704616e-08
1.7391642e-08
4.2793799e-08
2.3491777e-07
8.3383485e-07
2.829339e-06
3.0110065e-06
4.0035596e-06
4.946918e-06
7.5780796e-06
5.3451249e-06
2.7037232e-06
2.2352004e-06
2.1077918e-06
2.05372e-06
2.009185e-06
2.136239e-06
2.7945495e-06
1.6786714e-07
1.3278235e-07
1.037846e-06
2.4248422e-06
2.8000648e-06
4.1537986e-06
5.2917733e-06
5.6129018e-06
4.665211e-06
3.2194521e-06
2.5052023e-06
2.1904311e-06
2.0209577e-06
1.8979839e-06
1.7949722e-06
1.7553916e-06
1.2885982e-07
4.3498415e-07
3.9716506e-06
2.8974568e-06
3.0409816e-06
3.8034338e-06
4.5172807e-06
4.8318757e-06
9.0429699e-06
6.5937527e-06
2.4619299e-06
2.0755529e-06
1.8707183e-06
1.6716307e-06
1.2991392e-06
1.4646852e-06
1.6272237e-06
1.7564995e-06
1.9582703e-06
3.585314e-06
4.7646928e-07
4.0529532e-07
3.2978576e-07
3.1530844e-07
3.143842e-07
3.8481601e-07
5.2503391e-07
1.1156987e-06
3.6317881e-06
3.2998159e-06
4.1088872e-06
4.5767021e-06
6.9149955e-06
4.5610218e-06
2.6816148e-06
2.3242304e-06
2.2374619e-06
2.2080381e-06
2.2056889e-06
2.6808126e-06
4.2531388e-06
1.2191936e-06
3.4605964e-07
1.0580967e-07
2.0665087e-07
5.8780952e-07
4.486182e-06
2.8464613e-06
3.3589367e-06
4.6903554e-06
4.9128333e-06
4.6661296e-06
3.8260147e-06
3.0225498e-06
2.5212621e-06
2.2804704e-06
2.1443704e-06
2.0326384e-06
1.9496411e-06
2.1225635e-06
6.4976696e-07
5.2638386e-08
3.7444742e-07
7.5829106e-07
3.4953178e-06
3.9075706e-06
3.4093668e-06
4.0562561e-06
4.5539325e-06
4.3991671e-06
8.572258e-06
4.8811289e-06
2.4056773e-06
2.0933324e-06
1.910176e-06
1.7293766e-06
1.3819029e-06
1.5495291e-06
1.7171271e-06
1.8736956e-06
2.3119944e-06
5.3094838e-06
1.1284996e-06
1.1206873e-06
1.006928e-06
8.6764014e-07
1.0901226e-06
1.2231183e-06
1.2360369e-06
1.7359438e-06
3.992644e-06
3.4813281e-06
4.0040961e-06
4.0134088e-06
5.6657132e-06
3.8629887e-06
2.65077e-06
2.3952436e-06
2.3429881e-06
2.3379527e-06
2.3884714e-06
3.4334122e-06
6.7368186e-06
2.8427427e-06
2.0047779e-06
9.1964922e-07
8.6858078e-07
1.3483506e-06
4.3168054e-06
4.1990603e-06
3.280334e-06
3.882717e-06
4.7143663e-06
3.8668751e-06
3.675446e-06
3.2834971e-06
2.8530282e-06
2.521758e-06
2.3525051e-06
2.2547506e-06
2.1690157e-06
2.1646163e-06
3.1142769e-06
6.9382433e-07
1.6102139e-07
2.1370047e-07
4.00136e-07
6.5387782e-07
1.5089938e-06
2.1740076e-06
2.9550253e-06
4.4021722e-06
3.6605772e-06
4.1234434e-06
4.241043e-06
3.7098804e-06
7.5162586e-06
3.6981863e-06
2.3155564e-06
2.0800843e-06
1.9237815e-06
1.7636984e-06
1.4638999e-06
1.630145e-06
1.7984752e-06
1.977046e-06
2.6767941e-06
6.5562764e-06
1.8774217e-06
1.6235427e-06
9.8169351e-07
8.6634117e-07
1.3816613e-06
1.7090868e-06
1.93872e-06
2.9153159e-06
3.6798421e-06
3.4320987e-06
3.5038497e-06
3.396375e-06
4.3550044e-06
3.3217053e-06
2.6055011e-06
2.435689e-06
2.4103917e-06
2.4247215e-06
2.5009241e-06
4.0080911e-06
9.9804842e-06
4.0278255e-06
1.7955811e-06
1.6647022e-06
2.7556284e-06
3.3437908e-06
3.7475816e-06
3.6888419e-06
3.4980061e-06
3.9351036e-06
3.9759637e-06
2.9078173e-06
2.9641304e-06
2.9001457e-06
2.6961378e-06
2.4966783e-06
2.3917724e-06
2.3341692e-06
2.2837325e-06
2.3700037e-06
4.1989734e-06
1.1240197e-06
8.3843962e-07
1.0910096e-06
1.3145522e-06
1.3998418e-06
2.0394943e-06
3.6746465e-06
4.1883684e-06
4.423605e-06
3.6634759e-06
3.9282136e-06
3.6131239e-06
3.0350528e-06
5.6506774e-06
2.9422261e-06
2.2089293e-06
2.0392965e-06
1.9103808e-06
1.7711602e-06
1.5427109e-06
1.7037237e-06
1.8666879e-06
2.0522099e-06
2.8116384e-06
7.2145773e-06
2.9850944e-06
2.1376326e-06
1.014702e-06
9.7928042e-07
1.6141945e-06
2.1201703e-06
2.5578504e-06
3.0400645e-06
3.1146896e-06
2.9515886e-06
2.7459957e-06
2.8077403e-06
3.363358e-06
2.9158526e-06
2.534086e-06
2.4340842e-06
2.4298004e-06
2.4574441e-06
2.5285037e-06
3.7468842e-06
1.2431082e-05
5.0814387e-06
1.89229e-06
1.7707821e-06
2.2146945e-06
2.7044652e-06
3.0919921e-06
3.2260117e-06
3.2862283e-06
3.405595e-06
2.9284717e-06
2.2261946e-06
2.4847626e-06
2.6018822e-06
2.5379082e-06
2.4362582e-06
2.3856943e-06
2.3663575e-06
2.3577338e-06
2.4795345e-06
4.5788572e-06
1.5735381e-06
1.1850417e-06
1.5284005e-06
1.7096807e-06
1.5303242e-06
2.2890144e-06
4.9425449e-06
5.0683462e-06
3.8584203e-06
3.4595356e-06
3.4341387e-06
2.8031952e-06
2.642192e-06
3.826433e-06
2.464097e-06
2.0920545e-06
1.9738603e-06
1.8703791e-06
1.7505843e-06
1.6157413e-06
1.7692987e-06
1.9224588e-06
2.1035618e-06
2.6540826e-06
7.3952179e-06
4.7277307e-06
2.8150097e-06
1.1012795e-06
1.0061584e-06
1.6068056e-06
2.0623897e-06
2.4048118e-06
2.561548e-06
2.4598971e-06
2.2600144e-06
2.1022495e-06
2.3304318e-06
2.7111628e-06
2.5971216e-06
2.4276254e-06
2.3837072e-06
2.3969015e-06
2.434169e-06
2.5131838e-06
3.1345862e-06
1.1135958e-05
6.7100257e-06
2.1184649e-06
1.809702e-06
2.0113402e-06
2.2723774e-06
2.4989923e-06
2.6399739e-06
2.7072993e-06
2.5987199e-06
2.0738915e-06
1.7977252e-06
2.1523318e-06
2.3574981e-06
2.3732325e-06
2.337554e-06
2.3302293e-06
2.3489619e-06
2.3919649e-06
2.5509024e-06
4.0550576e-06
2.910438e-06
1.8284418e-06
2.0696744e-06
2.2130325e-06
1.987545e-06
2.5100352e-06
5.7361892e-06
4.491168e-06
3.2395781e-06
2.9699118e-06
2.652005e-06
2.0289938e-06
2.3178305e-06
2.6970814e-06
2.1443151e-06
1.9657998e-06
1.886663e-06
1.8057837e-06
1.7032561e-06
1.6789592e-06
1.8260299e-06
1.9674609e-06
2.1400426e-06
2.5142614e-06
6.0747136e-06
6.8450552e-06
3.7224331e-06
1.2470327e-06
9.2782378e-07
1.4270935e-06
1.805657e-06
2.0372424e-06
2.0259048e-06
1.8765932e-06
1.7200601e-06
1.712263e-06
1.9872175e-06
2.2832502e-06
2.3267936e-06
2.2850451e-06
2.2847186e-06
2.3130128e-06
2.360975e-06
2.4550625e-06
2.7776904e-06
6.2367095e-06
1.02332e-05
2.3706549e-06
1.7533654e-06
1.7811421e-06
1.8497079e-06
1.9310463e-06
2.0120278e-06
2.0371865e-06
1.9088292e-06
1.5835662e-06
1.5604463e-06
1.9390933e-06
2.1723984e-06
2.2093574e-06
2.2110481e-06
2.2346596e-06
2.281897e-06
2.3663284e-06
2.5888161e-06
3.6201537e-06
3.6664516e-06
3.0934072e-06
2.8155335e-06
2.5095515e-06
2.2443612e-06
2.5639236e-06
6.2658056e-06
3.6603918e-06
2.5522876e-06
2.249421e-06
1.8384878e-06
1.5368029e-06
1.9373115e-06
2.0880821e-06
1.9073531e-06
1.8310998e-06
1.781695e-06
1.7204461e-06
1.6329102e-06
1.7279612e-06
1.8696387e-06
1.9969842e-06
2.1560197e-06
2.4456122e-06
4.5229834e-06
6.9682123e-06
4.7783708e-06
1.4854202e-06
6.7792226e-07
1.2104035e-06
1.8013961e-06
1.8533727e-06
1.6579502e-06
1.5026097e-06
1.4219067e-06
1.4999546e-06
1.7438382e-06
1.9802425e-06
2.0845295e-06
2.1137134e-06
2.1444973e-06
2.1850648e-06
2.2430062e-06
2.3371568e-06
2.52934e-06
3.8103923e-06
8.5212971e-06
2.7487373e-06
1.7115566e-06
1.5956231e-06
1.5237993e-06
1.4994799e-06
1.5270256e-06
1.5680345e-06
1.650799e-06
1.5245613e-06
1.5740886e-06
1.8776136e-06
2.1202659e-06
2.0695793e-06
2.0676513e-06
2.1080714e-06
2.1731487e-06
2.2878143e-06
2.6315595e-06
4.0495074e-06
4.4457834e-06
3.6663507e-06
2.8928128e-06
2.1282214e-06
1.6224861e-06
1.6772963e-06
4.6985937e-06
2.8119081e-06
1.887511e-06
1.579404e-06
1.2774374e-06
1.2840111e-06
1.6238394e-06
1.7418532e-06
1.7135053e-06
1.6915159e-06
1.6647091e-06
1.6201117e-06
1.5453917e-06
1.7598934e-06
1.8967762e-06
2.0080444e-06
2.1489188e-06
2.3992351e-06
3.8120794e-06
6.8751653e-06
5.1420824e-06
1.9031869e-06
1.1105257e-06
2.1718827e-06
1.4590681e-06
1.3017659e-06
1.2733288e-06
1.3700897e-06
1.5608106e-06
1.7468176e-06
1.8639566e-06
1.9265438e-06
1.9759659e-06
2.0247758e-06
2.0865802e-06
2.1675727e-06
2.2874675e-06
2.8003922e-06
5.0023489e-06
3.4785331e-06
1.686446e-06
1.5089454e-06
1.3458066e-06
1.2119625e-06
1.1110643e-06
8.548942e-07
7.7216149e-07
1.8196925e-06
2.7552747e-06
2.0944786e-06
1.941049e-06
1.9745876e-06
2.0530154e-06
2.205742e-06
3.0911182e-06
9.2510944e-06
1.5709089e-07
5.0238067e-07
2.7848397e-06
2.0091339e-06
1.3834624e-06
1.1322164e-06
9.9612667e-07
1.141301e-06
1.4002372e-06
1.5158135e-06
1.545919e-06
1.5528996e-06
1.5428417e-06
1.5119026e-06
1.4479309e-06
1.7742421e-06
1.9068372e-06
2.0016689e-06
2.1234157e-06
2.3688352e-06
4.0752181e-06
1.2092215e-05
1.3837718e-06
1.3323985e-06
1.1856793e-06
1.1847724e-06
1.2718255e-06
1.4140468e-06
1.5574852e-06
1.6655721e-06
1.7377186e-06
1.7943968e-06
1.8467101e-06
1.9056256e-06
1.9697702e-06
2.0444975e-06
2.2680227e-06
3.205458e-06
3.7360681e-06
1.6029794e-06
1.4767343e-06
1.2001617e-06
8.4090803e-07
1.719628e-06
1.9236346e-06
1.833122e-06
1.8531687e-06
1.9395854e-06
2.145358e-06
3.3397881e-06
2.546857e-07
2.0446657e-06
1.4526764e-06
1.0638413e-06
8.9571143e-07
8.7609482e-07
1.0434853e-06
1.2402126e-06
1.3487784e-06
1.3993259e-06
1.4215747e-06
1.4233971e-06
1.4032682e-06
1.348134e-06
1.7727355e-06
1.9020174e-06
1.9828331e-06
2.0896583e-06
2.3585895e-06
4.1105052e-06
8.3261376e-07
1.2168668e-06
1.1037691e-06
1.1155866e-06
1.1871296e-06
1.2923317e-06
1.4011458e-06
1.4914976e-06
1.5591992e-06
1.6141146e-06
1.6650798e-06
1.7174523e-06
1.7683217e-06
1.8177146e-06
1.9218102e-06
2.3337517e-06
2.9291623e-06
1.4415622e-06
1.4086e-06
1.0783431e-06
6.4924335e-07
1.1112363e-06
1.6765598e-06
1.6988269e-06
1.7429459e-06
1.8290774e-06
2.0344028e-06
2.9837311e-06
2.5047185e-07
1.5060314e-06
1.115473e-06
8.8480157e-07
7.8969683e-07
8.2279019e-07
9.6841441e-07
1.1199296e-06
1.2169874e-06
1.2726708e-06
1.3026059e-06
1.3125313e-06
1.3008303e-06
1.2529725e-06
1.7581304e-06
1.8851519e-06
1.9541341e-06
2.0453911e-06
2.284406e-06
3.5176846e-06
6.2505625e-07
1.130322e-06
1.0472204e-06
1.0588087e-06
1.1142697e-06
1.1919747e-06
1.2729677e-06
1.3432242e-06
1.3992503e-06
1.4465198e-06
1.4917899e-06
1.5378115e-06
1.5813483e-06
1.6192788e-06
1.6718743e-06
1.8461204e-06
2.0548252e-06
1.3085536e-06
1.2895824e-06
1.0418904e-06
6.8448686e-07
6.6033082e-07
1.5536869e-06
1.59101e-06
1.6552782e-06
1.7314608e-06
1.9148025e-06
2.6893366e-06
3.1295026e-07
1.1577867e-06
9.3096813e-07
7.9886836e-07
7.4948317e-07
7.9458505e-07
9.0936489e-07
1.0271272e-06
1.1110886e-06
1.1656284e-06
1.1991043e-06
1.2145558e-06
1.2096386e-06
1.1680929e-06
1.7338957e-06
1.8584794e-06
1.9163812e-06
1.9887099e-06
2.159257e-06
3.0008611e-06
3.8236803e-07
5.9692539e-07
1.1245708e-06
1.0405964e-06
1.0312504e-06
1.064045e-06
1.1168091e-06
1.1731591e-06
1.2224404e-06
1.263471e-06
1.2997788e-06
1.337293e-06
1.378762e-06
1.4195139e-06
1.45362e-06
1.4843996e-06
1.5457178e-06
1.5259308e-06
1.1294616e-06
1.107857e-06
1.0418988e-06
7.963513e-07
4.1418444e-07
1.5536454e-06
1.5340783e-06
1.6008683e-06
1.6552036e-06
1.8068183e-06
2.4568999e-06
4.0723333e-07
1.0006078e-06
8.7004215e-07
7.8219e-07
7.4843935e-07
7.8342445e-07
8.6799654e-07
9.5873792e-07
1.0287944e-06
1.0789745e-06
1.1135362e-06
1.1328379e-06
1.1336041e-06
1.0979415e-06
1.70432e-06
1.8251915e-06
1.8724994e-06
1.9238665e-06
2.0135443e-06
2.6252119e-06
2.1838638e-06
2.5620085e-07
8.7649137e-07
1.3090329e-06
1.1845092e-06
1.1007206e-06
1.0799261e-06
1.0913314e-06
1.1165057e-06
1.1372652e-06
1.1580315e-06
1.18127e-06
1.2110233e-06
1.2491027e-06
1.2890737e-06
1.3238468e-06
1.3516122e-06
1.3744831e-06
1.2799693e-06
1.0152128e-06
9.6763728e-07
1.0725704e-06
1.0146123e-06
6.4259256e-07
6.8281999e-07
6.617682e-07
1.6818659e-06
1.5340643e-06
1.5831983e-06
1.605231e-06
1.7202195e-06
2.3005279e-06
5.5249651e-07
1.7378316e-07
7.0940396e-07
1.091464e-06
9.7995103e-07
8.6750876e-07
8.1520342e-07
8.1205545e-07
8.6381824e-07
9.3022583e-07
9.7746466e-07
1.0179162e-06
1.0505987e-06
1.0717701e-06
1.0766295e-06
1.0461153e-06
1.6744049e-06
1.7900645e-06
1.8282927e-06
1.8616843e-06
1.888402e-06
2.3835106e-06
7.3088705e-06
3.4382501e-06
1.4845376e-06
7.4912392e-07
6.5239555e-07
9.4775546e-07
1.2673838e-06
1.7096894e-06
1.9021149e-06
1.5095387e-06
1.3835436e-06
1.2320933e-06
1.1784433e-06
1.1197235e-06
1.0992879e-06
1.1022729e-06
1.1222158e-06
1.1563018e-06
1.1979852e-06
1.2432493e-06