/*--------------------------------*- C++ -*----------------------------------*\
  =========                 |
  \\      /  F ield         | OpenFOAM: The Open Source CFD Toolbox
   \\    /   O peration     | Website:  https://openfoam.org
    \\  /    A nd           | Version:  7
     \\/     M anipulation  |
\*---------------------------------------------------------------------------*/
FoamFile
{
    version     2.0;
    format      ascii;
    class       volScalarField;
    location    "50/fluid";
    object      nut;
}
// * * * * * * * * * * * * * * * * * * * * * * * * * * * * * * * * * * * * * //

dimensions      [0 2 -1 0 0 0 0];

internalField   nonuniform List<scalar> 
17240
(
1.3454811e-09
1.8097058e-09
1.8097067e-09
1.8097082e-09
1.80971e-09
1.8097123e-09
1.8097148e-09
1.8097172e-09
1.8097192e-09
1.8097202e-09
1.8097194e-09
1.809716e-09
1.80971e-09
1.8097019e-09
1.8096937e-09
1.8096879e-09
1.8096866e-09
1.8096903e-09
1.809698e-09
1.8097067e-09
1.8097139e-09
1.8097178e-09
1.8097185e-09
1.8097168e-09
1.8097141e-09
1.8097112e-09
1.8097087e-09
1.8097069e-09
1.8097056e-09
1.8097046e-09
1.8097035e-09
1.8097019e-09
1.8096997e-09
1.8096969e-09
1.8096942e-09
1.8096924e-09
1.8096925e-09
1.8096952e-09
1.8097002e-09
1.8097064e-09
1.8097123e-09
1.8097167e-09
1.8097187e-09
1.8097186e-09
1.8097167e-09
1.8097141e-09
1.8097112e-09
1.8097086e-09
1.8097064e-09
1.8097046e-09
1.809703e-09
1.8097013e-09
1.8096996e-09
1.8096977e-09
1.8096961e-09
1.8096952e-09
1.8096957e-09
1.8096978e-09
1.8097014e-09
1.8097056e-09
1.8097095e-09
1.8097119e-09
1.8097127e-09
1.8097121e-09
1.8097109e-09
1.8097099e-09
9.4452269e-10
1.0946134e-09
1.0946112e-09
1.0946054e-09
1.0945948e-09
1.0945757e-09
1.0945406e-09
1.0944768e-09
1.0943667e-09
1.094189e-09
1.0939247e-09
1.0935662e-09
1.0931292e-09
1.0926619e-09
1.0922437e-09
1.0919665e-09
1.0919021e-09
1.0920675e-09
1.092458e-09
1.0929922e-09
1.0935632e-09
1.0940766e-09
1.094475e-09
1.0947396e-09
1.09488e-09
1.0949191e-09
1.0948817e-09
1.0947874e-09
1.0946478e-09
1.0944689e-09
1.0942455e-09
1.0939774e-09
1.0936706e-09
1.0933438e-09
1.0930315e-09
1.0927774e-09
1.0926269e-09
1.0926188e-09
1.0927643e-09
1.0930426e-09
1.093406e-09
1.0937945e-09
1.0941516e-09
1.0944381e-09
1.0946348e-09
1.0947404e-09
1.0947645e-09
1.0947203e-09
1.0946201e-09
1.0944729e-09
1.0942848e-09
1.0940609e-09
1.09381e-09
1.0935475e-09
1.0932991e-09
1.0930997e-09
1.0929882e-09
1.0929972e-09
1.0931413e-09
1.093409e-09
1.093763e-09
1.0941501e-09
1.0945169e-09
1.0948216e-09
1.0950389e-09
1.0951579e-09
7.806419e-10
8.4740618e-10
8.4739937e-10
8.4738427e-10
8.4735769e-10
8.4731036e-10
8.4722351e-10
8.4706554e-10
8.4679124e-10
8.4634654e-10
8.4568282e-10
8.4478107e-10
8.436819e-10
8.4250795e-10
8.4145661e-10
8.4075407e-10
8.4058099e-10
8.4099186e-10
8.4196786e-10
8.4331069e-10
8.4475434e-10
8.4605953e-10
8.4707594e-10
8.4775158e-10
8.4810868e-10
8.482063e-10
8.4810904e-10
8.4786831e-10
8.4751442e-10
8.4706334e-10
8.4650251e-10
8.4582935e-10
8.4505822e-10
8.4423485e-10
8.4344502e-10
8.4279739e-10
8.4241189e-10
8.4238378e-10
8.4274229e-10
8.4343767e-10
8.4435288e-10
8.4533758e-10
8.4624828e-10
8.4698169e-10
8.4748632e-10
8.4775743e-10
8.4781931e-10
8.4770694e-10
8.474527e-10
8.4708022e-10
8.4660496e-10
8.4603959e-10
8.4540628e-10
8.4474278e-10
8.4411218e-10
8.4360405e-10
8.4331594e-10
8.4333118e-10
8.4368866e-10
8.4436227e-10
8.4526061e-10
8.4624954e-10
8.4719122e-10
8.4797603e-10
8.485374e-10
8.4884801e-10
6.9635799e-10
7.3246589e-10
7.3245865e-10
7.3243925e-10
7.3240314e-10
7.3233569e-10
7.3220594e-10
7.3196056e-10
7.3152179e-10
7.307955e-10
7.2969643e-10
7.2819121e-10
7.2635048e-10
7.2438277e-10
7.2261676e-10
7.2142195e-10
7.2110777e-10
7.2179293e-10
7.2342129e-10
7.2567139e-10
7.2810298e-10
7.3030953e-10
7.3202626e-10
7.3315769e-10
7.3374129e-10
7.3388278e-10
7.3369842e-10
7.3327996e-10
7.3268217e-10
7.3193347e-10
7.3100578e-10
7.2989004e-10
7.2860632e-10
7.2722886e-10
7.2589939e-10
7.2480069e-10
7.2414783e-10
7.2409588e-10
7.2469106e-10
7.2585348e-10
7.2739203e-10
7.2905636e-10
7.3060144e-10
7.3184554e-10
7.3269651e-10
7.3314559e-10
7.3323726e-10
7.330355e-10
7.3259886e-10
7.3196895e-10
7.3117004e-10
7.3022519e-10
7.2916673e-10
7.2805433e-10
7.269906e-10
7.2613061e-10
7.2563778e-10
7.2565329e-10
7.2624592e-10
7.2737731e-10
7.2889846e-10
7.3058344e-10
7.3219347e-10
7.3353625e-10
7.34495e-10
7.3502155e-10
6.4653727e-10
6.6856705e-10
6.6858175e-10
6.685812e-10
6.6856197e-10
6.6850499e-10
6.6836717e-10
6.6807126e-10
6.6750142e-10
6.6651457e-10
6.6497963e-10
6.6284544e-10
6.6021917e-10
6.5740814e-10
6.5487857e-10
6.5313451e-10
6.5264311e-10
6.5365134e-10
6.5597955e-10
6.5919044e-10
6.6267758e-10
6.6585086e-10
6.6830465e-10
6.6988578e-10
6.7065258e-10
6.7077485e-10
6.7043834e-10
6.6978727e-10
6.6892304e-10
6.6788071e-10
6.6658991e-10
6.6502615e-10
6.6320999e-10
6.612437e-10
6.5932916e-10
6.5773834e-10
6.5681135e-10
6.567654e-10
6.57637e-10
6.5931459e-10
6.6153475e-10
6.6394366e-10
6.6618201e-10
6.6797362e-10
6.6917659e-10
6.6978019e-10
6.6985951e-10
6.6951977e-10
6.688549e-10
6.6792868e-10
6.6677501e-10
6.6543478e-10
6.6393104e-10
6.6234252e-10
6.6081754e-10
6.5958117e-10
6.5888235e-10
6.5891223e-10
6.5977078e-10
6.6140957e-10
6.6362204e-10
6.6608198e-10
6.6843289e-10
6.7038361e-10
6.7175923e-10
6.7248327e-10
6.1504224e-10
6.2934378e-10
6.2946229e-10
6.2956288e-10
6.2964922e-10
6.2969931e-10
6.2965838e-10
6.2942262e-10
6.2882972e-10
6.2767275e-10
6.2575799e-10
6.2300906e-10
6.1958129e-10
6.1590275e-10
6.1257746e-10
6.1020653e-10
6.0951304e-10
6.1104182e-10
6.1416587e-10
6.1833633e-10
6.2288236e-10
6.2701583e-10
6.3014575e-10
6.3204234e-10
6.3280446e-10
6.3270474e-10
6.3203232e-10
6.3100739e-10
6.2986911e-10
6.2859148e-10
6.2699238e-10
6.2501323e-10
6.2266451e-10
6.2007537e-10
6.1751684e-10
6.1537893e-10
6.1422705e-10
6.1435039e-10
6.1565305e-10
6.179761e-10
6.2098878e-10
6.2422836e-10
6.2720463e-10
6.2952843e-10
6.3100341e-10
6.3163223e-10
6.3154788e-10
6.3092327e-10
6.2990497e-10
6.2858608e-10
6.2704754e-10
6.2531231e-10
6.2335704e-10
6.2127129e-10
6.1925873e-10
6.1764444e-10
6.1682437e-10
6.1698678e-10
6.1824314e-10
6.2052147e-10
6.2354616e-10
6.2687229e-10
6.3000459e-10
6.3253888e-10
6.3424485e-10
6.3501014e-10
5.9564906e-10
6.050088e-10
6.0544917e-10
6.0586837e-10
6.062887e-10
6.0668638e-10
6.0699558e-10
6.0708357e-10
6.067317e-10
6.0564976e-10
6.035612e-10
6.0036721e-10
5.963156e-10
5.9200274e-10
5.8810092e-10
5.8512546e-10
5.8444622e-10
5.8731445e-10
5.9136182e-10
5.9586153e-10
6.0100409e-10
6.0574451e-10
6.0916289e-10
6.1089186e-10
6.1110489e-10
6.1025383e-10
6.087927e-10
6.0708568e-10
6.0574524e-10
6.044111e-10
6.0267412e-10
6.0040587e-10
5.9758812e-10
5.9437722e-10
5.9113392e-10
5.8840287e-10
5.8717008e-10
5.8799504e-10
5.9017328e-10
5.9343944e-10
5.9745364e-10
6.0161697e-10
6.052932e-10
6.079682e-10
6.0940305e-10
6.0966072e-10
6.0899698e-10
6.0770809e-10
6.060248e-10
6.0411078e-10
6.0220067e-10
6.0011619e-10
5.9774201e-10
5.9516552e-10
5.9266296e-10
5.9070994e-10
5.9002875e-10
5.9075509e-10
5.9284841e-10
5.9614657e-10
6.0024271e-10
6.045177e-10
6.0833458e-10
6.1118985e-10
6.1283535e-10
6.1313167e-10
5.8597827e-10
5.9202015e-10
5.9320092e-10
5.9434865e-10
5.9551819e-10
5.9667943e-10
5.9775338e-10
5.9857799e-10
5.988772e-10
5.9828124e-10
5.9647624e-10
5.9351365e-10
5.9008296e-10
5.872249e-10
5.8504864e-10
5.8267939e-10
5.8417474e-10
5.9336407e-10
5.977337e-10
5.9577021e-10
5.9787612e-10
6.0138607e-10
6.0389749e-10
6.0437439e-10
6.0294293e-10
6.0031778e-10
5.9721431e-10
5.9437641e-10
5.9304604e-10
5.9199412e-10
5.9045984e-10
5.8820382e-10
5.8518056e-10
5.8161929e-10
5.7803666e-10
5.7512957e-10
5.7426106e-10
5.771673e-10
5.8096126e-10
5.8518516e-10
5.9021759e-10
5.9508351e-10
5.9907635e-10
6.0157176e-10
6.0227645e-10
6.0135931e-10
5.9930008e-10
5.9661599e-10
5.9367846e-10
5.9095798e-10
5.8874857e-10
5.8644294e-10
5.8378585e-10
5.8086231e-10
5.7805663e-10
5.7602203e-10
5.7601684e-10
5.7842127e-10
5.8241524e-10
5.8754941e-10
5.9309896e-10
5.9810823e-10
6.0206876e-10
6.0449258e-10
6.0515137e-10
6.0388865e-10
5.8437378e-10
5.887687e-10
5.9122783e-10
5.9359941e-10
5.9597213e-10
5.98286e-10
6.0043136e-10
6.0221078e-10
6.033043e-10
6.0333909e-10
6.0229426e-10
6.0148372e-10
6.0455159e-10
6.1573349e-10
6.3050206e-10
6.3448131e-10
6.526367e-10
6.6634586e-10
6.8002044e-10
6.3553281e-10
6.1864436e-10
6.1443028e-10
6.1352353e-10
6.1139209e-10
6.0704125e-10
6.0137537e-10
5.9553982e-10
5.9127191e-10
5.9009522e-10
5.8965026e-10
5.8868853e-10
5.8689318e-10
5.8439572e-10
5.8193103e-10
5.8059836e-10
5.808546e-10
5.824862e-10
5.9359022e-10
5.9777177e-10
5.9783415e-10
6.0189438e-10
6.0528944e-10
6.0802291e-10
6.0935575e-10
6.0852284e-10
6.0552601e-10
6.0108845e-10
5.9608472e-10
5.9118331e-10
5.8757852e-10
5.8512619e-10
5.8276263e-10
5.8013885e-10
5.7746058e-10
5.7542e-10
5.7498831e-10
5.7770007e-10
5.8389111e-10
5.9167398e-10
5.9964766e-10
6.063736e-10
6.0961914e-10
6.1163827e-10
6.1222758e-10
6.1064493e-10
6.064016e-10
5.8762808e-10
5.9257092e-10
5.9661206e-10
6.0039581e-10
6.0401736e-10
6.0733708e-10
6.1016956e-10
6.1224758e-10
6.1319286e-10
6.1272656e-10
6.119418e-10
6.1713441e-10
6.4293371e-10
6.9603286e-10
7.3850627e-10
6.552391e-10
4.5462008e-10
1.5331293e-10
4.4347927e-10
5.9235539e-10
6.2787179e-10
6.3007118e-10
6.2641379e-10
6.1925529e-10
6.1005678e-10
6.0088468e-10
5.9503381e-10
5.9361685e-10
5.9354384e-10
5.9300266e-10
5.9186221e-10
5.9149634e-10
5.9582563e-10
6.0972677e-10
6.3040381e-10
6.3841694e-10
6.588811e-10
6.5466835e-10
6.3339864e-10
6.3598038e-10
6.2956789e-10
6.2603964e-10
6.2484402e-10
6.2268584e-10
6.177999e-10
6.1076923e-10
6.0299484e-10
5.9583568e-10
5.9123109e-10
5.8822659e-10
5.8570013e-10
5.8354094e-10
5.8276143e-10
5.8578247e-10
5.9588961e-10
6.1619486e-10
6.2897427e-10
6.4200247e-10
6.5229487e-10
6.5719743e-10
6.4179154e-10
6.3316763e-10
6.2968444e-10
6.2562756e-10
6.1808942e-10
5.9004807e-10
5.9783995e-10
6.0305633e-10
6.076818e-10
6.1178665e-10
6.1511468e-10
6.1736459e-10
6.1814827e-10
6.1693057e-10
6.132631e-10
6.0802122e-10
5.9820779e-10
5.2427119e-10
2.8363107e-10
1.2343241e-10
4.1405117e-10
5.8752708e-10
6.3362642e-10
6.3795105e-10
6.3122166e-10
6.1981108e-10
6.078597e-10
5.995589e-10
5.9656807e-10
5.9558966e-10
5.9420401e-10
5.9301331e-10
5.9776275e-10
6.2198944e-10
6.6116693e-10
6.5189496e-10
3.6781451e-10
1.0847952e-10
3.8857408e-10
5.7894155e-10
6.2890965e-10
6.3566645e-10
6.3421775e-10
6.334167e-10
6.2909229e-10
6.209521e-10
6.1114577e-10
6.0210054e-10
5.9564737e-10
5.9091002e-10
5.8731092e-10
5.8573328e-10
5.9040393e-10
6.114776e-10
6.5765699e-10
7.3425994e-10
7.2594764e-10
7.247866e-10
7.48511e-10
7.9573096e-10
6.9939763e-10
6.5539861e-10
6.4354036e-10
6.3953826e-10
6.315514e-10
5.8503791e-10
5.970291e-10
6.0236176e-10
6.0675168e-10
6.1025672e-10
6.1252593e-10
6.1316396e-10
6.1169118e-10
6.0737843e-10
5.988403e-10
5.8160791e-10
5.2392104e-10
3.0264689e-10
1.3382136e-10
4.7754406e-10
6.1158478e-10
6.368874e-10
6.3482677e-10
6.2296335e-10
6.083566e-10
5.9611991e-10
5.9004739e-10
5.8666073e-10
5.8285912e-10
5.7954154e-10
5.7747942e-10
5.1767638e-10
2.7311677e-10
1.2393977e-10
3.9200539e-10
5.7310568e-10
6.2154763e-10
6.3122804e-10
6.3077752e-10
6.2360616e-10
6.1286226e-10
6.0169911e-10
5.917667e-10
5.834256e-10
5.7700446e-10
5.7437682e-10
5.7595988e-10
5.2976792e-10
2.9428637e-10
1.8629365e-10
4.934547e-10
6.1333813e-10
6.3452249e-10
6.3921313e-10
6.3587554e-10
5.6905892e-10
5.8506926e-10
5.9004671e-10
5.9403262e-10
5.9704034e-10
5.9861726e-10
5.983441e-10
5.9588624e-10
5.9072733e-10
5.803547e-10
5.537125e-10
4.6734691e-10
2.3695734e-10
9.5644055e-11
4.2363913e-10
5.8417204e-10
6.2609669e-10
6.2730748e-10
6.139152e-10
5.9532011e-10
5.7895841e-10
5.7026303e-10
5.6498775e-10
5.5959952e-10
5.5296707e-10
5.2100903e-10
3.098809e-10
1.3156992e-10
4.6049298e-10
5.9081745e-10
6.191608e-10
6.2262536e-10
6.1549832e-10
6.0274155e-10
5.8792535e-10
5.7318876e-10
5.6042763e-10
5.4998446e-10
5.3898394e-10
4.8908074e-10
2.6781362e-10
7.5372692e-11
3.7723505e-10
5.3240542e-10
6.0186928e-10
6.2247951e-10
6.2490625e-10
5.4508241e-10
5.6428211e-10
5.7053749e-10
5.760131e-10
5.8050751e-10
5.8343557e-10
5.8455086e-10
5.8424434e-10
5.8326434e-10
5.7774336e-10
5.5026609e-10
4.5428492e-10
2.4079367e-10
6.9096771e-11
4.1968241e-10
5.7284897e-10
6.139154e-10
6.1125421e-10
5.9286009e-10
5.7003238e-10
5.5286016e-10
5.4501e-10
5.4101401e-10
5.3807971e-10
5.3277131e-10
4.8870283e-10
2.626037e-10
9.8116349e-11
4.1889158e-10
5.7006421e-10
6.0890481e-10
6.1062952e-10
5.9896886e-10
5.8139222e-10
5.6157027e-10
5.4281574e-10
5.2787094e-10
5.1517714e-10
4.9030921e-10
3.8537714e-10
1.9508838e-10
1.6891169e-10
4.6057551e-10
5.7012489e-10
6.023584e-10
6.0401949e-10
5.2150526e-10
5.4388134e-10
5.5468271e-10
5.6461706e-10
5.7339739e-10
5.8076584e-10
5.8751963e-10
5.9682252e-10
6.1432537e-10
6.2258615e-10
5.9755305e-10
4.9639982e-10
3.0323672e-10
7.5747967e-11
4.5633569e-10
5.8036893e-10
6.0709007e-10
5.9420018e-10
5.6911997e-10
5.4653363e-10
5.3571713e-10
5.3390521e-10
5.3452256e-10
5.3769592e-10
5.3603951e-10
4.904808e-10
2.8920862e-10
3.3896141e-11
1.2501945e-10
4.3017885e-10
5.7165392e-10
6.0621693e-10
6.0037382e-10
5.8101685e-10
5.5698727e-10
5.3301212e-10
5.1358215e-10
5.0113849e-10
4.9276882e-10
4.636947e-10
2.8143979e-10
1.2864817e-10
4.3712675e-10
5.5750756e-10
5.9251793e-10
5.8508729e-10
5.0651551e-10
5.3307775e-10
5.5105665e-10
5.67752e-10
5.8405334e-10
6.0221933e-10
6.2700748e-10
6.7194012e-10
7.8062793e-10
8.2020444e-10
7.9284178e-10
6.4243301e-10
4.6800534e-10
1.2054589e-10
7.3399311e-11
1.8060881e-10
5.2625406e-10
6.0514123e-10
6.0918614e-10
5.8426593e-10
5.582989e-10
5.4873748e-10
5.5867724e-10
5.7703741e-10
5.841576e-10
5.9718108e-10
6.0599281e-10
5.7322696e-10
4.0398933e-10
1.0009664e-10
1.0339635e-10
2.7839025e-10
4.8097303e-10
5.93081e-10
6.1325535e-10
5.9664284e-10
5.6973883e-10
5.4270893e-10
5.2031079e-10
5.0463643e-10
4.9847975e-10
4.9917757e-10
4.7915232e-10
3.0511815e-10
2.6512825e-11
1.4322306e-10
4.5819151e-10
5.7070488e-10
5.9910969e-10
5.772349e-10
5.0337498e-10
5.3515854e-10
5.6099487e-10
5.8574746e-10
6.1260925e-10
6.3264589e-10
5.7982581e-10
3.6825248e-10
2.6398949e-10
5.8319392e-10
6.228829e-10
4.0840894e-10
1.9109735e-10
8.6889191e-11
1.8861916e-10
3.5219883e-10
5.7393359e-10
5.2448274e-10
4.34358e-10
6.1467426e-10
6.3899464e-10
6.1893197e-10
5.8807747e-10
5.7810252e-10
6.1113974e-10
6.8931991e-10
7.9999488e-10
7.7088133e-10
8.0152912e-10
8.4962432e-10
8.473157e-10
6.2918302e-10
3.6556878e-10
1.6971336e-10
4.4434726e-11
1.7857937e-10
5.8825621e-10
4.8058805e-10
5.6102747e-10
6.2842731e-10
6.2734228e-10
6.0047444e-10
5.7373646e-10
5.6157418e-10
5.6153326e-10
5.5231748e-10
5.5506249e-10
5.699757e-10
5.6546621e-10
4.2429797e-10
1.1556203e-10
2.6359527e-10
3.3961943e-10
5.2605885e-10
6.0844932e-10
6.2131106e-10
5.8329171e-10
5.1046472e-10
5.4770701e-10
5.8033853e-10
6.1213178e-10
6.3679467e-10
5.7758408e-10
3.3774936e-10
2.3774448e-10
5.3599101e-10
5.9030697e-10
5.3663685e-10
5.3007602e-10
1.3309785e-09
2.8640852e-09
3.8784147e-09
1.2612627e-09
6.7418639e-10
7.0018353e-10
6.7326493e-10
6.3495168e-10
6.0888546e-10
6.1645563e-10
5.9808774e-10
4.0537861e-10
3.1652463e-10
5.6777493e-10
5.7774634e-10
5.0527944e-10
2.2799365e-10
2.0123671e-10
1.9937775e-09
3.3909628e-09
1.1887514e-09
6.6825404e-10
6.5007558e-10
6.6677403e-10
6.4360566e-10
6.1478505e-10
6.1523528e-10
6.8665607e-10
8.0539895e-10
7.424163e-10
7.6026395e-10
8.0864918e-10
8.2363312e-10
6.4183932e-10
3.866151e-10
1.9119069e-10
6.631661e-11
1.0958242e-10
1.9388067e-10
4.2037056e-10
4.1438181e-09
1.2517604e-09
6.4083119e-10
6.6386947e-10
6.5461622e-10
6.0161738e-10
5.2425852e-10
5.6622327e-10
6.0307384e-10
6.3444913e-10
6.2030053e-10
4.0293607e-10
2.3708482e-10
5.0494507e-10
6.3974536e-10
7.3524547e-10
1.0663312e-09
1.9918547e-09
4.9230349e-09
1.6783792e-09
8.691778e-10
7.6893605e-10
7.0452824e-10
6.5735158e-10
6.3613231e-10
6.1531406e-10
4.3793319e-10
2.8748657e-10
5.7163157e-10
6.7000051e-10
5.9836721e-10
6.7705463e-10
1.5828603e-09
4.2078374e-09
1.3875573e-09
8.2001488e-10
7.282627e-10
6.996078e-10
6.6063595e-10
6.3497076e-10
6.0979323e-10
4.5952213e-10
3.1528879e-10
5.7814087e-10
5.9237029e-10
5.4076678e-10
5.4698756e-10
1.2862786e-09
2.5248278e-09
2.6571229e-09
5.179555e-09
3.5709489e-09
7.7688455e-10
7.278395e-10
6.9432831e-10
6.2918762e-10
5.4191432e-10
5.8729702e-10
6.2524193e-10
6.4852859e-10
6.0192819e-10
3.7030877e-10
2.4264458e-10
5.8254507e-10
8.3185195e-10
1.183836e-09
1.9601524e-09
4.7771461e-09
2.0922696e-09
1.0041378e-09
8.1883426e-10
7.3481073e-10
6.8585356e-10
6.6114931e-10
6.0748603e-10
4.0701042e-10
1.8489139e-10
5.5616327e-10
7.5202961e-10
8.6851963e-10
1.0913621e-09
2.0807431e-09
4.040428e-09
1.479438e-09
9.2560677e-10
7.8589149e-10
7.2594568e-10
6.7896365e-10
6.4736549e-10
5.82019e-10
4.4063779e-10
2.9097507e-10
5.689642e-10
6.7469685e-10
7.576663e-10
1.0620763e-09
1.6192875e-09
2.2286918e-09
4.6738426e-09
4.1094811e-09
9.0799823e-10
7.9323117e-10
7.3753685e-10
6.6365239e-10
5.6204158e-10
6.0980567e-10
6.4754089e-10
6.6318689e-10
6.0435996e-10
4.0495634e-10
1.2216375e-10
5.7936147e-10
9.1298841e-10
1.3555307e-09
2.1181011e-09
4.3691684e-09
2.3446798e-09
1.0817145e-09
8.5586696e-10
7.6821989e-10
7.2116988e-10
6.8956255e-10
6.1987877e-10
4.3895707e-10
6.714497e-11
5.9089683e-10
8.3564525e-10
1.1161704e-09
1.5706007e-09
2.7135101e-09
3.3355705e-09
1.4883582e-09
9.8609182e-10
8.2598139e-10
7.5072533e-10
6.9969622e-10
6.5101242e-10
4.9170434e-10
1.2618311e-10
5.4230179e-10
7.1722043e-10
8.8702657e-10
1.1670039e-09
1.6085e-09
2.2501224e-09
4.7218405e-09
3.6111294e-09
1.0135194e-09
8.5276858e-10
7.8128137e-10
7.0256609e-10
5.8427027e-10
6.3397195e-10
6.7211863e-10
6.8507526e-10
6.3363865e-10
4.9790334e-10
5.0161759e-12
2.0497054e-10
7.151356e-10
1.0549676e-09
1.5559368e-09
2.2866673e-09
4.1107987e-09
2.3824633e-09
1.1175632e-09
8.8837116e-10
8.0815577e-10
7.65363e-10
7.3016164e-10
6.674359e-10
5.3574657e-10
1.2599435e-10
7.2398428e-10
9.7079776e-10
1.4043768e-09
2.0869757e-09
3.1756389e-09
2.6569862e-09
1.4439592e-09
1.0162732e-09
8.5841645e-10
7.7987702e-10
7.2588872e-10
6.6183927e-10
4.7339345e-10
1.0501544e-10
6.900751e-10
7.9713437e-10
1.0078271e-09
1.3433753e-09
1.8091826e-09
2.4126684e-09
4.4492787e-09
3.0813828e-09
1.0800287e-09
9.0180597e-10
8.2292451e-10
7.4343439e-10
6.086682e-10
6.6027702e-10
7.0048158e-10
7.1731829e-10
6.9405793e-10
6.8078339e-10
1.5674747e-11
3.5286694e-12
7.6956406e-12
1.221777e-10
5.0637202e-10
1.0708868e-09
1.2685034e-09
1.7698181e-09
2.3995054e-09
3.926513e-09
2.2386585e-09
1.1301246e-09
9.2262965e-10
8.5566692e-10
8.1986817e-10
7.9077787e-10
7.7157656e-10
7.6121441e-10
3.2243057e-11
2.4656516e-11
3.7442087e-10
9.4929284e-10
1.181429e-09
1.7605498e-09
2.5621779e-09
3.209966e-09
2.1591373e-09
1.3804814e-09
1.0340538e-09
8.9222973e-10
8.1762767e-10
7.6292438e-10
6.9282263e-10
5.1217891e-10
2.3580145e-11
8.0631805e-11
1.3048343e-09
1.0644579e-09
1.1862967e-09
1.5520105e-09
2.0213485e-09
2.4977497e-09
4.3590584e-09
2.5610033e-09
1.1077167e-09
9.3858033e-10
8.6009377e-10
7.8360807e-10
6.3532887e-10
6.8887402e-10
7.3281371e-10
7.5972573e-10
7.9018712e-10
1.0340406e-09
2.6520165e-10
3.9974206e-10
6.546073e-11
6.0702081e-11
5.9465925e-11
1.2017377e-10
2.8436023e-10
6.5254318e-10
1.5375155e-09
1.5164568e-09
1.9574684e-09
2.4026347e-09
3.576298e-09
1.9998371e-09
1.1337485e-09
9.6081297e-10
9.0876367e-10
8.8262874e-10
8.7209555e-10
9.6058604e-10
1.2499498e-09
1.0104263e-09
6.477837e-11
1.9421028e-11
4.0825523e-11
2.621951e-10
1.8428719e-09
1.2541334e-09
1.5229493e-09
2.18033e-09
2.7337749e-09
2.6768895e-09
1.8243046e-09
1.3205686e-09
1.0511269e-09
9.3132836e-10
8.6503184e-10
8.1469061e-10
7.5495133e-10
6.427447e-10
3.0789611e-10
9.4840527e-12
7.5669165e-11
3.2234351e-10
1.490034e-09
1.5725941e-09
1.4399984e-09
1.7681069e-09
2.1641802e-09
2.4262825e-09
4.1701193e-09
2.0925694e-09
1.1069246e-09
9.6322742e-10
8.9073959e-10
8.2029593e-10
6.6413892e-10
7.1935403e-10
7.6790743e-10
8.0862554e-10
9.2353727e-10
1.5598208e-09
7.5788499e-10
1.0440173e-09
8.9474445e-10
7.8310834e-10
9.9313799e-10
1.1664234e-09
1.2254909e-09
1.2456201e-09
1.8829328e-09
1.7373892e-09
2.0532157e-09
2.2762921e-09
2.9354975e-09
1.7504696e-09
1.1358179e-09
1.0009527e-09
9.6286714e-10
9.4732963e-10
9.6193933e-10
1.241922e-09
2.2305901e-09
2.1379236e-09
1.676257e-09
1.8065714e-10
3.27396e-10
9.2416782e-10
2.2256295e-09
1.9869929e-09
1.5862022e-09
1.8918069e-09
2.4272006e-09
2.4313941e-09
2.1062417e-09
1.5998287e-09
1.2726615e-09
1.0705428e-09
9.7399678e-10
9.1880694e-10
8.7916083e-10
8.5387099e-10
9.6796661e-10
3.0865945e-10
6.0684267e-11
4.2184318e-11
8.0048816e-11
1.3243472e-10
8.8429762e-10
1.7919998e-09
1.9297128e-09
2.0043387e-09
1.6859918e-09
1.9402657e-09
2.1780909e-09
2.2200385e-09
3.6880979e-09
1.7175844e-09
1.0896494e-09
9.7666855e-10
9.1323876e-10
8.5074844e-10
6.947042e-10
7.5075733e-10
8.0347334e-10
8.5723817e-10
1.0700089e-09
2.025061e-09
1.2864255e-09
1.3328124e-09
8.5575353e-10
7.9470459e-10
1.2477774e-09
1.5969689e-09
1.7415814e-09
1.8163254e-09
1.9288818e-09
1.8295157e-09
1.9301117e-09
2.0016969e-09
2.2632136e-09
1.5378896e-09
1.1368454e-09
1.0382312e-09
1.0122122e-09
1.0059682e-09
1.0374605e-09
1.5071776e-09
3.6353963e-09
2.5599728e-09
1.5411009e-09
1.5474468e-09
2.1882126e-09
2.2235003e-09
2.1387371e-09
1.9348957e-09
1.8110839e-09
2.0645829e-09
2.2742446e-09
1.9469042e-09
1.7000749e-09
1.4444429e-09
1.2353322e-09
1.0891641e-09
1.0148332e-09
9.7216135e-10
9.4681017e-10
9.6907033e-10
1.3982474e-09
6.4682721e-10
8.5301953e-10
1.1081868e-09
1.2242021e-09
1.216655e-09
1.6483024e-09
2.824895e-09
2.9352798e-09
2.2479712e-09
1.8336028e-09
2.0079319e-09
2.0302886e-09
1.9639568e-09
2.8576369e-09
1.4433544e-09
1.064155e-09
9.7979823e-10
9.2638747e-10
8.7250943e-10
7.2637962e-10
7.8186295e-10
8.3701253e-10
8.9853771e-10
1.1552108e-09
2.382177e-09
1.8926712e-09
1.6274394e-09
8.5548239e-10
8.4622714e-10
1.3264103e-09
1.6647543e-09
1.8020051e-09
1.8415111e-09
1.750822e-09
1.6603049e-09
1.6031602e-09
1.6432219e-09
1.7446414e-09
1.3729635e-09
1.1329338e-09
1.0667674e-09
1.0513011e-09
1.052307e-09
1.0864275e-09
1.5178121e-09
4.6031642e-09
2.8209609e-09
1.5105602e-09
1.4793005e-09
1.6614018e-09
1.7894005e-09
1.8396139e-09
1.7985096e-09
1.8033017e-09
1.9263657e-09
1.846902e-09
1.5194369e-09
1.4363186e-09
1.3316125e-09
1.203091e-09
1.1014444e-09
1.0472968e-09
1.0173404e-09
1.0068766e-09
1.061812e-09
1.6890604e-09
9.7844102e-10
1.2770232e-09
1.5629697e-09
1.5226134e-09
1.3022911e-09
1.7336946e-09
3.3239441e-09
3.1796221e-09
2.1283877e-09
1.871151e-09
1.9162602e-09
1.7402827e-09
1.7472528e-09
2.0287514e-09
1.2519147e-09
1.0338618e-09
9.7305217e-10
9.2931779e-10
8.8367245e-10
7.5827252e-10
8.1168065e-10
8.671195e-10
9.3109325e-10
1.1422676e-09
2.6142428e-09
2.6509126e-09
2.007812e-09
8.6856707e-10
8.1606214e-10
1.2325844e-09
1.4597241e-09
1.5591559e-09
1.5436929e-09
1.4335195e-09
1.3227711e-09
1.252293e-09
1.3261812e-09
1.4021299e-09
1.2467946e-09
1.1191677e-09
1.0812674e-09
1.0757185e-09
1.0828723e-09
1.118864e-09
1.3788447e-09
4.1911836e-09
3.2801738e-09
1.5471671e-09
1.376515e-09
1.416172e-09
1.4759224e-09
1.5187323e-09
1.539439e-09
1.5721877e-09
1.5814559e-09
1.4096988e-09
1.2290646e-09
1.2648026e-09
1.2470238e-09
1.1712321e-09
1.1025358e-09
1.0658465e-09
1.0490066e-09
1.054833e-09
1.1317371e-09
1.6735121e-09
1.5296537e-09
1.4187754e-09
1.7131733e-09
1.7064017e-09
1.496115e-09
1.7310614e-09
3.4533902e-09
2.6719552e-09
1.9038964e-09
1.7335229e-09
1.621807e-09
1.3793059e-09
1.4865847e-09
1.4849867e-09
1.1182243e-09
9.9891091e-10
9.565028e-10
9.2153884e-10
8.8313641e-10
7.888155e-10
8.3934107e-10
8.9312347e-10
9.5656847e-10
1.1136803e-09
2.3162007e-09
3.3905682e-09
2.4713671e-09
8.6881242e-10
6.8223162e-10
1.0582868e-09
1.236366e-09
1.2826596e-09
1.2211514e-09
1.1131984e-09
1.0209492e-09
1.004626e-09
1.1046905e-09
1.1858509e-09
1.1459009e-09
1.092298e-09
1.0782886e-09
1.0824687e-09
1.0961906e-09
1.1339413e-09
1.2890451e-09
2.5863972e-09
4.313087e-09
1.6021821e-09
1.2554321e-09
1.2042344e-09
1.1904831e-09
1.1985076e-09
1.2241659e-09
1.2503189e-09
1.2312783e-09
1.115646e-09
1.0659516e-09
1.16087e-09
1.1835788e-09
1.1342706e-09
1.0885228e-09
1.0667296e-09
1.0619828e-09
1.0816886e-09
1.177855e-09
1.5970249e-09
1.8233012e-09
1.791015e-09
1.78477e-09
1.6475544e-09
1.4836498e-09
1.6135791e-09
3.5715465e-09
2.202241e-09
1.5976128e-09
1.421228e-09
1.2281673e-09
1.0774056e-09
1.2103104e-09
1.1748743e-09
1.0195765e-09
9.5859301e-10
9.3043947e-10
9.0320615e-10
8.7084716e-10
8.1597277e-10
8.6332811e-10
9.1365079e-10
9.7415928e-10
1.097832e-09
1.8638553e-09
3.2235824e-09
2.9647639e-09
8.5158072e-10
3.3186424e-10
6.2936246e-10
1.0575456e-09
1.1407193e-09
1.0037054e-09
8.9844284e-10
8.4067339e-10
8.6491453e-10
9.632857e-10
1.0444703e-09
1.0598923e-09
1.0520384e-09
1.0570154e-09
1.0703659e-09
1.0900872e-09
1.1246716e-09
1.221386e-09
1.7679308e-09
3.7134514e-09
1.7439419e-09
1.1707689e-09
1.0438498e-09
9.7229639e-10
9.453252e-10
9.554216e-10
9.7094741e-10
9.8466247e-10
9.5463078e-10
1.0329153e-09
1.107141e-09
1.1423067e-09
1.0873034e-09
1.0547822e-09
1.0465174e-09
1.0533204e-09
1.0859498e-09
1.2173372e-09
1.7198773e-09
1.9435705e-09
1.7597882e-09
1.456779e-09
1.0759181e-09
8.7050498e-10
9.6825435e-10
2.4111227e-09
1.7674728e-09
1.2603793e-09
1.0732195e-09
9.0236004e-10
8.7681166e-10
9.9931818e-10
9.9550485e-10
9.4028343e-10
9.1315587e-10
8.9602717e-10
8.754551e-10
8.479441e-10
8.3782804e-10
8.822679e-10
9.2802313e-10
9.8428265e-10
1.0905226e-09
1.6407462e-09
2.9770301e-09
2.6961282e-09
8.4600237e-10
2.2306102e-10
1.2279177e-09
8.9440081e-10
7.8715238e-10
7.539166e-10
7.8995476e-10
8.7168619e-10
9.4497768e-10
9.8314155e-10
1.0009128e-09
1.0193624e-09
1.0403765e-09
1.0631339e-09
1.0908115e-09
1.1504149e-09
1.4068876e-09
2.4400673e-09
2.1023803e-09
1.1145027e-09
9.3906899e-10
8.122241e-10
6.8969134e-10
5.3315562e-10
2.7978665e-10
1.5354467e-10
8.7133531e-10
1.1638408e-09
1.0412433e-09
1.0024535e-09
1.0072413e-09
1.0278321e-09
1.0790675e-09
1.3361812e-09
2.6378947e-09
2.8205199e-11
2.4645104e-10
1.6292805e-09
1.3524565e-09
9.7358068e-10
8.0550576e-10
7.0531873e-10
7.5523158e-10
8.5866963e-10
8.8157306e-10
8.7205215e-10
8.6435619e-10
8.5555423e-10
8.4050226e-10
8.1669551e-10
8.5295673e-10
8.9530808e-10
9.3635081e-10
9.8852589e-10
1.0926839e-09
1.6990734e-09
3.8079427e-09
2.6343483e-10
8.3558852e-10
7.3202023e-10
7.1238986e-10
7.4546464e-10
8.0826285e-10
8.6982461e-10
9.1366136e-10
9.431626e-10
9.6934467e-10
9.9538017e-10
1.0177613e-09
1.0379928e-09
1.0738599e-09
1.2060438e-09
1.734945e-09
2.2555512e-09
1.0554617e-09
8.6325542e-10
6.3036827e-10
2.8976154e-10
3.406075e-10
8.3170928e-10
9.2297576e-10
9.5252622e-10
9.8958991e-10
1.0633544e-09
1.1987067e-09
5.0507396e-11
1.3490479e-09
1.032625e-09
7.6914262e-10
6.4347186e-10
6.0766538e-10
6.8052903e-10
7.6577722e-10
8.0108635e-10
8.1178997e-10
8.1496034e-10
8.1210151e-10
8.0135906e-10
7.8017126e-10
8.606238e-10
9.020648e-10
9.3897808e-10
9.8786364e-10
1.0990304e-09
1.4934914e-09
1.6123716e-10
7.8216833e-10
6.9789743e-10
6.8707009e-10
7.141801e-10
7.6122329e-10
8.105088e-10
8.5142645e-10
8.8344847e-10
9.1202407e-10
9.3964318e-10
9.5936788e-10
9.744711e-10
9.9753128e-10
1.0714303e-09
1.3588655e-09
1.8629372e-09
1.0046414e-09
8.2326058e-10
5.6672211e-10
2.3093569e-10
2.1831248e-10
6.8242433e-10
8.2849683e-10
8.8699233e-10
9.3931915e-10
1.0214849e-09
1.0634576e-09
5.2101948e-11
1.0579822e-09
8.1240646e-10
6.4087519e-10
5.6248017e-10
5.6397491e-10
6.3258552e-10
7.0197318e-10
7.4017084e-10
7.5901257e-10
7.6784379e-10
7.6886663e-10
7.6126407e-10
7.4173038e-10
8.607145e-10
9.0226776e-10
9.3533706e-10
9.7947864e-10
1.0775454e-09
1.2490081e-09
1.2268882e-10
7.3103543e-10
6.7155287e-10
6.6735062e-10
6.8985081e-10
7.2535165e-10
7.6336771e-10
7.972516e-10
8.2596461e-10
8.5248942e-10
8.7755942e-10
8.9470474e-10
9.0831983e-10
9.2680679e-10
9.7253102e-10
1.1303128e-09
1.3815832e-09
9.6835818e-10
7.8380314e-10
5.7901491e-10
2.9001808e-10
1.287592e-10
6.056654e-10
7.4857597e-10
8.2259977e-10
8.8443615e-10
9.6747961e-10
9.7325818e-10
6.3723503e-11
8.2759991e-10
6.7124512e-10
5.707138e-10
5.2984956e-10
5.4579986e-10
6.0161498e-10
6.571845e-10
6.9309052e-10
7.1402549e-10
7.2526419e-10
7.2851068e-10
7.2307886e-10
7.0448702e-10
8.5383393e-10
8.9574632e-10
9.244636e-10
9.6059119e-10
1.0292234e-09
1.0785334e-09
7.9655267e-11
1.170833e-10
6.9522467e-10
6.5719792e-10
6.5630066e-10
6.7462002e-10
7.0100821e-10
7.2837615e-10
7.5272787e-10
7.7392079e-10
7.9398256e-10
8.1428629e-10
8.3046163e-10
8.4595396e-10
8.6499639e-10
8.9741637e-10
9.8063858e-10
1.0585002e-09
8.5186286e-10
7.0727849e-10
5.9641197e-10
3.8528671e-10
7.9379276e-11
5.8338456e-10
6.9546187e-10
7.7077987e-10
8.3288479e-10
9.0914896e-10
9.0602279e-10
8.035922e-11
6.7748169e-10
5.9603985e-10
5.4418178e-10
5.2623726e-10
5.4335665e-10
5.8494323e-10
6.2761151e-10
6.5757692e-10
6.7649081e-10
6.8780438e-10
6.9216859e-10
6.8847158e-10
6.7080036e-10
8.4147394e-10
8.8298823e-10
9.0617027e-10
9.305983e-10
9.6236017e-10
9.5823899e-10
6.3439449e-10
4.7635807e-11
2.5128498e-10
7.0324936e-10
6.8584298e-10
6.7926638e-10
6.8678327e-10
6.9944427e-10
7.1195e-10
7.1896953e-10
7.2723286e-10
7.3916159e-10
7.5526885e-10
7.7245882e-10
7.9215936e-10
8.150755e-10
8.443118e-10
8.9032087e-10
8.839238e-10
7.419509e-10
6.3293593e-10
6.0218449e-10
4.990699e-10
1.1817715e-10
1.3195277e-10
1.5959018e-10
6.1269816e-10
6.7316158e-10
7.3833631e-10
7.9077409e-10
8.5224792e-10
8.5855353e-10
1.051068e-10
3.1711732e-11
2.14121e-10
6.274801e-10
5.9790911e-10
5.6967664e-10
5.5999423e-10
5.6526578e-10
5.8945818e-10
6.1429914e-10
6.3011886e-10
6.4348752e-10
6.5388353e-10
6.5944651e-10
6.5797853e-10
6.4221739e-10
8.2608593e-10
8.657288e-10
8.8234689e-10
8.934892e-10
8.9262405e-10
8.794177e-10
2.2106854e-09
6.5297529e-10
2.8498284e-10
1.4312022e-10
1.1922118e-10
2.581583e-10
5.1253417e-10
7.5566059e-10
8.2727527e-10
7.7651406e-10
8.0858776e-10
7.698274e-10
7.3663016e-10
7.0374187e-10
6.9103538e-10
6.9298291e-10
7.057019e-10
7.2544083e-10
7.5001169e-10
7.7998352e-10