/*--------------------------------*- C++ -*----------------------------------*\
  =========                 |
  \\      /  F ield         | OpenFOAM: The Open Source CFD Toolbox
   \\    /   O peration     | Website:  https://openfoam.org
    \\  /    A nd           | Version:  7
     \\/     M anipulation  |
\*---------------------------------------------------------------------------*/
FoamFile
{
    version     2.0;
    format      ascii;
    class       volScalarField;
    location    "50/fluid";
    object      p_rgh;
}
// * * * * * * * * * * * * * * * * * * * * * * * * * * * * * * * * * * * * * //

dimensions      [1 -1 -2 0 0 0 0];

internalField   nonuniform List<scalar> 
17240
(
4.6437988
4.6474177
4.6542407
4.6649289
4.6794358
4.697684
4.7195474
4.7448144
4.7731276
4.8038976
4.8362017
4.8686938
4.8995666
4.9266334
4.9475641
4.9602819
4.9634269
4.9567067
4.940939
4.9180724
4.8907686
4.8618702
4.8339426
4.8089824
4.7883326
4.7727229
4.7623786
4.7571382
4.7565478
4.7599219
4.7663695
4.7747652
4.7837566
4.7917924
4.7972231
4.7984736
4.7942662
4.7838256
4.7670839
4.7447385
4.7181524
4.6891201
4.6595683
4.6312832
4.6057072
4.5838469
4.566261
4.5531024
4.5441799
4.5390164
4.536893
4.5368791
4.5378622
4.5385844
4.5377291
4.534045
4.5265197
4.5145749
4.4982325
4.4781912
4.455773
4.4327368
4.4110205
4.3924638
4.3786031
4.3705397
4.6390107
4.6448525
4.6516899
4.6624086
4.6769659
4.6952963
4.7172975
4.7427969
4.7714928
4.8028629
4.8360465
4.8697227
4.9020347
4.9306377
4.9529414
4.9665652
4.9699075
4.9626423
4.9455873
4.9209619
4.8917811
4.8611957
4.8319549
4.8061156
4.7849904
4.769237
4.7590024
4.7540628
4.7539253
4.7578875
4.765075
4.7743612
4.7843721
4.7934956
4.7999673
4.8020618
4.7983659
4.7879697
4.7707663
4.7475193
4.7197475
4.6894427
4.6587155
4.6294807
4.6032444
4.5810191
4.5633355
4.5503052
4.5416984
4.5370092
4.5354986
4.5362182
4.5380289
4.5396198
4.5395903
4.5365751
4.5294327
4.5174745
4.5006708
4.479756
4.4561737
4.4318592
4.4089267
4.3893563
4.3747697
4.3663108
4.6302069
4.6380525
4.6449321
4.6557283
4.6704078
4.6889328
4.7112594
4.7373167
4.766954
4.7998391
4.8352982
4.8721105
4.908315
4.9411526
4.9673038
4.9835111
4.9874655
4.9787113
4.9580604
4.9285243
4.8941564
4.8589798
4.8262375
4.7981142
4.7758067
4.7597519
4.7498724
4.7457712
4.7468485
4.7523718
4.7615147
4.7731653
4.7859118
4.7979885
4.8073245
4.8117583
4.8095006
4.7992447
4.7807616
4.7550037
4.7239392
4.6901244
4.6561879
4.6243981
4.5964193
4.5732631
4.5553665
4.542719
4.5349819
4.5315722
4.5317031
4.5343848
4.5384276
4.5423816
4.5446196
4.5434706
4.5374235
4.5254666
4.5074108
4.4840828
4.4572733
4.4294221
4.4031487
4.3808152
4.3642621
4.3547195
4.6172319
4.6272074
4.6341539
4.645062
4.6599022
4.6786654
4.7013835
4.7281362
4.7590194
4.7940423
4.8329131
4.8746928
4.9173711
4.9575533
4.9906132
5.0116169
5.0168446
5.0055699
4.9784798
4.9401762
4.8967767
4.8538922
4.815538
4.7839755
4.7600782
4.7438288
4.7347348
4.7321035
4.7351468
4.7431452
4.7553665
4.7707861
4.7879967
4.8050296
4.8193061
4.827858
4.8282004
4.8182597
4.7975354
4.7673326
4.7304771
4.6905834
4.6512174
4.6152429
4.584537
4.5600382
4.5419679
4.5300751
4.523827
4.5225187
4.5253028
4.5311649
4.5388795
4.5468066
4.5529349
4.5550992
4.5510987
4.5392884
4.5191356
4.4916066
4.4591386
4.4251297
4.3931327
4.3661594
4.3463676
4.3350703
4.5998529
4.6120923
4.6191356
4.6301876
4.6451996
4.6641673
4.6871871
4.7145118
4.746575
4.7839236
4.8269676
4.8754485
4.927605
4.9792855
5.0237373
5.0529978
5.0607188
5.0456344
5.0078478
4.9550951
4.8974578
4.8431394
4.7970861
4.7613159
4.7359263
4.7200554
4.7125285
4.7122128
4.7180255
4.7293963
4.7457631
4.7663594
4.7899433
4.814382
4.8363673
4.8515733
4.8562378
4.8469707
4.822662
4.7852432
4.739089
4.6896635
4.6420976
4.6001316
4.5658171
4.5398133
4.5218889
4.5113635
4.5073952
4.5091186
4.5156132
4.5259834
4.5390014
4.5528569
4.5650311
4.5725365
4.5720935
4.5608511
4.5375677
4.5033705
4.4618254
4.4180679
4.3772656
4.3433986
4.3189542
4.3052082
4.5777492
4.5924482
4.5996403
4.6108889
4.6260791
4.6451485
4.6681906
4.6955907
4.7281621
4.7671999
4.8142913
4.870625
4.9355355
5.0043898
5.0671573
5.1103365
5.1228376
5.1023975
5.0468393
4.9705901
4.8915095
4.82155
4.7662602
4.7264981
4.7007134
4.6866026
4.6819748
4.6851036
4.6945197
4.7100203
4.7313548
4.758339
4.7902815
4.8251432
4.858712
4.8845093
4.896084
4.8882717
4.8583574
4.8094732
4.7488015
4.6849867
4.6257256
4.5759141
4.5374956
4.5103703
4.493427
4.4852696
4.4846045
4.4903775
4.5016236
4.5178428
4.5379449
4.5601083
4.5813011
4.5970899
4.6027313
4.593043
4.5653324
4.520813
4.4650048
4.4062792
4.3526048
4.309228
4.2787119
4.2619204
4.5504749
4.5679204
4.5753669
4.5869366
4.6023727
4.6214375
4.6440649
4.6706029
4.7021378
4.7408222
4.7899855
4.8535503
4.9339243
5.0275494
5.119816
5.1862924
5.2077857
5.1807212
5.0939426
4.979084
4.8690844
4.779765
4.715614
4.6742382
4.6509671
4.6412918
4.6416903
4.6497145
4.663596
4.6836218
4.7101407
4.7440743
4.7860583
4.8349162
4.885647
4.9283987
4.9510189
4.9463401
4.9074877
4.8402595
4.7569689
4.6717052
4.5964675
4.537386
4.4953892
4.4686197
4.4543846
4.4501908
4.4541464
4.4649382
4.4818878
4.5050763
4.5339902
4.5672247
4.601421
4.6302402
4.6460993
4.6400762
4.6063047
4.5456966
4.4671275
4.3854609
4.3136735
4.2581612
4.2205928
4.2005514
4.5173939
4.5380195
4.545927
4.5580984
4.5740378
4.5931547
4.6149395
4.6393118
4.6671971
4.7013226
4.7470616
4.8127431
4.907809
5.0350699
5.1761791
5.2809184
5.3185238
5.2868392
5.1365444
4.9603153
4.809877
4.7012261
4.6336727
4.5973974
4.5825842
4.5819256
4.5905654
4.6052356
4.6244307
4.6487244
4.6794148
4.7192609
4.7716036
4.838006
4.9138311
4.9839678
5.0250273
5.0269038
4.9727301
4.8758259
4.7569825
4.6398038
4.5440145
4.4760676
4.4334081
4.4105373
4.4021998
4.4044276
4.41468
4.4312318
4.4544315
4.4850448
4.5238944
4.5709282
4.6233151
4.6729614
4.7056852
4.7076762
4.6658738
4.5796227
4.4630881
4.3459145
4.2501845
4.1812526
4.1372195
4.1147425
4.4775661
4.5020335
4.5107667
4.5240945
4.5411904
4.5608948
4.5818318
4.6027863
4.6235053
4.6460737
4.6769414
4.7295303
4.8261511
4.9913001
5.2206079
5.3845057
5.4466967
5.4267152
5.0951811
4.8636424
4.6736522
4.5575211
4.5038746
4.4873463
4.4915026
4.506924
4.5283294
4.5517961
4.5770758
4.6043822
4.6360882
4.6774594
4.736534
4.8216032
4.9329033
5.0488056
5.1211332
5.1371938
5.0516031
4.9089937
4.7326836
4.5679858
4.4492438
4.3783969
4.3431406
4.3313449
4.3343168
4.346582
4.3650719
4.3879382
4.4169128
4.4538949
4.5020027
4.5641995
4.6404493
4.7223597
4.7851818
4.8024255
4.7505469
4.6224769
4.4369404
4.2650862
4.1428438
4.0644234
4.0184809
3.9965095
4.4295734
4.4588754
4.4690032
4.4844432
4.5040205
4.5258314
4.5471325
4.5645286
4.5747583
4.5763907
4.5727308
4.5770356
4.6229409
4.8074322
5.2240232
5.4672201
5.5492491
4.4058272
4.56321
4.3854791
4.3017029
4.3050451
4.335864
4.3752093
4.4163269
4.4559308
4.4915747
4.5236291
4.5515685
4.5780233
4.6104296
4.663027
4.7574509
4.9135312
5.111787
5.2348843
5.2826323
5.1050565
4.9252689
4.6403565
4.4089973
4.2763409
4.2236794
4.2141099
4.2263166
4.2489965
4.2763131
4.305028
4.3345421
4.3672323
4.4067386
4.4594145
4.5334389
4.6359075
4.7650783
4.8876129
4.9268592
4.8642954
4.6684338
4.3328722
4.0898742
3.9568933
3.8874307
3.8522429
3.837352
4.3712848
4.4068478
4.4191345
4.4381163
4.4624491
4.4895302
4.5148742
4.5316914
4.5311058
4.503305
4.4387919
4.3269525
4.1572181
4.3719358
3.7491388
3.8050569
3.8688964
4.018859
4.1404819
4.2353853
4.3130533
4.376531
4.4294363
4.4698969
4.4957472
4.5074558
4.5112539
4.5238423
4.5820796
4.7792881
5.1497654
5.3288289
4.8593339
4.9400653
4.3085152
4.0503619
3.9590931
3.9839404
4.0362221
4.0928157
4.1467397
4.1954617
4.2367787
4.2727128
4.305028
4.3389817
4.3842317
4.4552548
4.5700112
4.757619
5.0053894
5.0639091
4.9924078
4.6994227
3.8850405
3.7013718
3.6373799
3.6272519
3.6282222
3.6315476
4.2995984
4.3433304
4.3585942
4.3829052
4.4153093
4.4530755
4.4901446
4.5154087
4.5115248
4.4548536
4.3140291
4.025583
3.4988756
1.3061774
3.1513513
3.6564252
3.9156913
4.0812912
4.2012828
4.2970774
4.373615
4.4270875
4.4505051
4.4374691
4.3840119
4.2868952
4.148562
4.4360858
2.6371486
3.1497901
3.3867849
3.6333719
3.8073112
3.9340924
4.0321686
4.1085132
4.1669096
4.2086194
4.2345359
4.2498193
4.2651183
4.2964081
4.3593615
4.6407982
1.1868283
2.8447972
3.1274706
3.2745233
3.3478635
3.3825349
4.2102629
4.2644486
4.2831729
4.3144212
4.3587705
4.4148949
4.4765343
4.5283019
4.5415217
4.473029
4.2806566
3.9382031
3.5484208
2.4808792
2.9103981
3.3946137
3.7113966
3.9262141
4.0893386
4.2238723
4.3342021
4.4120423
4.4402866
4.3999017
4.2662005
3.9751653
3.3919045
0.34588846
2.5515202
3.2104058
3.5514678
3.7642155
3.913703
4.0254839
4.1070237
4.1555391
4.1686404
4.1482565
4.1014806
4.036125
3.9851409
2.4072656
2.398458
2.6539842
2.8974243
3.0416798
3.1102395
4.097988
4.1648805
4.1864469
4.2247672
4.2837699
4.3665464
4.4702405
4.5773151
4.6444536
4.5848608
4.3489102
3.949205
3.4969236
2.5710556
2.8319893
3.22864
3.5400528
3.7789446
3.9779155
4.1562531
4.3173128
4.4434103
4.4968151
4.4419883
4.2458788
3.8671575
3.359686
1.7163089
2.289922
2.924961
3.3312996
3.602273
3.8025538
3.9590755
4.0739608
4.1356812
4.13239
4.0585369
3.9173672
3.7653317
4.1004489
0.91491067
2.1511585
2.5538982
2.7546857
2.8473275
3.9571993
4.0381256
4.0596001
4.1012488
4.1725015
4.2857242
4.4489457
4.6491347
4.8393306
4.8058748
4.4877851
3.9488174
3.3804774
2.540211
2.7678659
3.0964971
3.383872
3.6263515
3.8492575
4.0753671
4.3127862
4.5326072
4.6456341
4.5927619
4.349578
3.8482278
3.1807486
1.7858268
1.7941705
2.244713
2.7669246
3.1601457
3.4575227
3.7024966
3.9146159
4.0860671
4.1795123
4.1626602
4.0124741
3.6820782
3.0409373
1.8124151
2.0613661
2.3511777
2.5336689
2.6259537
3.783884
3.8777707
3.8924574
3.9262331
3.9948255
4.1256259
4.3520531
4.673181
5.1276793
5.1512213
4.5347894
3.8150723
2.8210674
0.79949929
2.2856277
2.3071312
2.6810091
2.9766727
3.2239196
3.4435588
3.6653177
3.9270549
4.2670784
4.671507
4.8922359
4.8618627
4.5539912
3.7773942
2.6016433
0.34976442
1.8954498
1.9238006
2.2749316
2.6717019
3.0135453
3.3089292
3.588883
3.8748632
4.1546879
4.3202207
4.3038631
4.0860394
3.5926976
2.8841505
1.9900861
1.9978043
2.0666046
2.2455232
2.3842997
2.4603193
3.5787586
3.6804124
3.6771201
3.6807035
3.7073345
3.7977553
4.0680851
4.5443278
3.3523658
3.4690868
2.793533
1.953375
1.5674887
2.4732346
2.5048297
2.6121805
2.6544
2.5120141
2.5310143
2.6900226
2.8806948
3.0517159
3.2063044
3.3679813
3.5884586
4.0240768
4.8144785
5.1910309
5.1915462
4.8146391
3.4410329
2.4590851
1.6163768
1.604494
2.3079644
2.2999191
2.2120505
2.1692467
2.3397334
2.5965166
2.8552656
3.1126988
3.3991794
3.7616954
4.268126
4.5763735
4.5815132
4.3045362
3.5285463
2.2470013
-0.46400229
2.0087618
2.0186693
2.0658659
2.1834716
2.2867022
2.3459372
3.350898
3.4504411
3.4158684
3.3567812
3.2642408
3.1481468
3.7659023
2.1928988
2.6320439
2.270831
2.3303955
2.482141
2.4962497
2.5624438
2.6230298
2.5842852
2.6253262
2.7097411
2.7972625
2.8683513
2.9083432
2.8981039
2.8074424
3.3767261
0.55729607
1.6290068
1.7404245
2.0453903
1.7233968
2.0974933
2.2537341
2.2747516
2.2615865
2.2645774
2.3589916
2.49968
2.6534408
2.8178547
3.0178413
3.3317848
4.3688596
4.9066542
4.9407271
4.6065867
3.242223
2.1647241
1.0478947
0.86463512
1.7519428
1.7758093
1.8204079
1.9554635
2.0165085
2.024365
2.0599683
2.1504834
2.2288879
2.2742987
3.1186289
3.2048398
3.1331321
2.9880941
2.6714144
2.0008642
1.345518
2.0517778
2.2275176
2.469806
2.6179633
2.730024
2.8443871
2.8054308
2.7571128
2.7339732
2.7243102
2.696962
2.6056892
2.3384573
1.7194757
-0.81970818
1.4677235
1.9673291
2.202563
2.2150709
2.2961065
2.3480568
2.3426956
2.3303333
2.3455013
2.3781848
2.4065653
2.4041129
2.2955941
2.0231982
0.48780692
1.5081017
1.4213491
1.6423808
1.7785927
1.7813502
1.775089
1.8498818
1.9939801
2.0028402
2.0646244
2.1439629
2.2034246
2.2369136
2.9030086
2.9714329
2.8811423
2.7103486
2.4271839
2.1480818
0.38158063
1.9757226
2.3824422
2.6804361
2.8862827
3.0151616
2.9575019
2.8389547
2.7422733
2.6658307
2.5768355
2.4341232
2.2017747
2.0075873
1.1793137
1.5055291
1.9549764
2.2751363
2.4328248
2.5099058
2.5453859
2.4640759
2.3854078
2.319226
2.2545737
2.1645139
2.013614
1.8086197
2.0649463
-0.44193958
1.4009772
1.6524382
1.8028225
1.8362413
1.8358354
1.9177719
2.0466972
2.0487971
2.1111025
2.1654913
2.2036818
2.2252869
2.7165098
2.7707705
2.6861517
2.5408968
2.3392046
2.1390312
1.6829028
1.9116043
2.2810134
2.6275147
2.8798465
3.0159937
2.9562053
2.83378
2.7176885
2.6154522
2.5054816
2.3652799
2.1977128
2.052996
1.3688591
1.5150179
1.9474593
2.3268637
2.5438408
2.6373339
2.6314245
2.5233184
2.4058789
2.2852091
2.1507256
1.9676394
1.6576018
1.1013219
1.3287033
1.4798169
1.6829804
1.8425112
1.9457623
2.0169944
2.1079201
2.2127044
2.2085287
2.1952439
2.2063057
2.2202446
2.2299395
2.5607519
2.6063587
2.5395104
2.4337744
2.3021737
2.1866943
1.8180943
1.7832867
1.8926286
2.1747578
2.5061556
2.7572011
2.8823867
2.8512075
2.7637231
2.6650489
2.5668486
2.4607964
2.3409501
2.2243581
2.1415162
1.4744511
1.6081576
1.9780301
2.3413825
2.5551795
2.6360415
2.6128923
2.5206089
2.3962765
2.2521394
2.0852607
1.8763074
1.6144409
1.4160931
1.4030387
1.5485717
1.6913224
1.8641423
2.0273152
2.1549093
2.2581521
2.3389487
2.318376
2.2619955
2.243556
2.2399702
2.2408268
2.4303948
2.4725617
2.427023
2.3604803
2.286492
2.2312975
2.2269915
2.2362719
1.7358271
1.8077725
1.8482169
1.9102237
2.1026447
2.3831716
2.6051173
2.7114712
2.7145857
2.6697739
2.601304
2.5208893
2.4295991
2.3323285
2.2545979
2.2308121
2.2319847
1.7117904
1.6597679
1.7346432
2.0537085
2.3554654
2.5290389
2.5812086
2.566976
2.4937201
2.3756828
2.2270049
2.0527878
1.8509384
1.6420583
1.4935841
1.431304
1.5300712
1.6278928
1.7028675
1.8548839
2.0470093
2.2032242
2.3083993
2.3754468
2.3381166
2.2860439
2.2628101
2.2533629
2.2503621
2.3173039
2.3597924
2.3336692
2.300355
2.2728643
2.259429
2.2461521
2.2364671
2.2149333
2.1240208
1.9464222
1.7494591
1.8029384
1.8793165
1.9437604
2.0552501
2.2895585
2.4745769
2.562595
2.5930674
2.5835865
2.5432843
2.482184
2.4058821
2.3245047
2.2686657
2.2575153
2.2374437
2.2211198
1.8040794
1.8293899
1.752493
1.7512693
1.8506174
2.1432476
2.3884144
2.5110955
2.5456224
2.5367823
2.4729004
2.3598726
2.2121427
2.0388505
1.8461658
1.6593558
1.5211545
1.4696693
1.4753144
1.7547447
1.6190002
1.701731
1.6897072
1.8181498
2.0205277
2.1836131
2.2814328
2.3270526
2.3032249
2.2781849
2.2647804
2.2579917
2.2552165
2.2138153
2.2583311
2.2465194
2.2371048
2.2458757
2.2832719
2.2525251
2.2291548
2.172344
2.051636
1.870339
1.7140622
1.6919242
1.7572536
1.8210724
2.0132161
2.2308679
2.3812864
2.4610006
2.5098853
2.5233002
2.5026756
2.4559065
2.3893824
2.3144186
2.2687184
2.2858154
2.2439573
2.1788043
2.0389375
1.8494212
1.8188314
1.8008441
1.819502
1.991832
2.2528489
2.4440038
2.5262294
2.5525801
2.539277
2.4715042
2.3558266
2.2074443
2.0363548
1.8504748
1.6792625
1.5980044
1.5670213
1.4846531
1.471358
1.5819794
1.7365324
1.7050674
1.6097125
1.5855878
1.6067496
1.7660778
1.9784933
2.13638
2.2245207
2.2525998
2.2573472
2.2576165
2.2570551
2.2561211
2.2555143
2.1148207
2.1608755
2.1562872
2.1568104
2.1781556
2.2457741
2.2158627
2.187074
2.108777
1.9632137
1.782356
1.6164364
1.5854669
1.6506786
1.791724
2.0188988
2.2113132
2.3339051
2.4137259
2.4715857
2.4956205
2.4852608
2.4462267
2.3829153
2.3026858
2.2395536
2.2704075
2.2310723
2.1237187
1.9972574
1.8923668
1.8314316
1.8511001
1.9511641
2.1554385
2.3830938
2.5298748
2.5872473
2.6046092
2.5746989
2.4894127
2.3618922
2.2094815
2.0407311
1.8572046
1.6710119
1.5520976
1.510168
1.4204234
1.3879567
1.4756277
1.6016125
1.6149897
1.5176913
1.460524
1.526715
1.7443205
1.9520872
2.0927151
2.1695381
2.1982614
2.2206808
2.2376447
2.2469895
2.2513112
2.2529625
2.018324
2.0643108
2.0607108
2.0573464
2.0600356
2.1066353
2.1076431
2.0915471
2.0328127
1.9210005
1.7877714
1.6761236
1.6493038
1.7413555
1.9050889
2.0948488
2.2422283
2.3416699
2.4185122
2.4748979
2.4994582
2.4918207
2.4556754
2.3925615
2.303269
2.1994591
2.1814205
2.1889496
2.1194879
2.0330475
1.963754
1.9372161
1.9832774
2.1166134
2.3244622
2.526569
2.6469897
2.6932753
2.6944047
2.6340104
2.5172742
2.3691641
2.2112676
2.0505516
1.8806394
1.6840854
1.4680812
1.3841639
1.2996318
1.262137
1.3626027
1.5084171
1.5811544
1.5054626
1.4503904
1.5790212
1.7906969
1.9602293
2.0695026
2.1282278
2.16559
2.2000886
2.2249254
2.2392194
2.2463765
2.249304
1.9239874
1.9693419
1.9650185
1.9549008
1.9307531
1.9025073
1.9371557
1.9556348
1.9674357
1.9368522
1.8870466
1.863778
1.8875573
1.9728969
2.0942248
2.2190791
2.3196356
2.3981621
2.4641734
2.5104818
2.5288009
2.5191727
2.4838724
2.4226008
2.3345076
2.2131296
2.1030987
2.1687235
2.1685981
2.133608
2.0872322
2.0723997
2.1240136
2.2656744
2.4719296
2.6717955
2.7914273
2.8341799
2.8092758
2.7014948
2.5377629
2.3616466
2.200273
2.0602933
1.9309833
1.7812514
1.5646159
1.3739348
1.2626475
1.2333658
1.3578274
1.5517414
1.7045598
1.7280038
1.688725
1.7568543
1.8849081
1.9966308
2.0706437
2.1166262
2.1592172
2.1961693
2.2212565
2.2355621
2.242674
2.2454972
1.8314229
1.8769744
1.8745979
1.8666996
1.8412363
1.7768525
1.7617629
1.830511
1.9391446
1.9905108
2.0111457
2.0921927
2.1690653
2.2329179
2.2971191
2.3641366
2.4272829
2.4852872
2.5348942
2.5667886
2.5754727
2.5614852
2.5267377
2.4715394
2.3966291
2.2954955
2.1948895
2.2073048
2.2664128
2.2538116
2.2127342
2.1831954
2.2158173
2.3591892
2.5685332
2.8042976
2.9550533
2.9953511
2.9307969
2.7551563
2.5207658
2.3099427
2.1513383
2.0481188
1.9966379
1.9765946
1.9030141
1.6680593
1.4392613
1.3800406
1.4943466
1.6934022
1.8921868
1.9898575
1.9337213
1.9287133
1.9832754
2.0462183
2.0946183
2.1353488
2.1749284
2.2060292
2.2255312
2.2357339
2.2401416
2.2414817
1.7389681
1.7864401
1.7896196
1.7961013
1.8042876
1.7983407
1.7564458
1.7824335
1.9640714
2.064946
2.104927
2.3460369
2.4643387
2.4766849
2.4833204
2.5074807
2.5441141
2.5839263
2.6167346
2.6336592
2.6315392
2.6119717
2.5774037
2.5311242
2.4732233
2.4037112
2.3421545
2.3435398
2.387774
2.3695809
2.3099363
2.2339285
2.2106964
2.3747266
2.5744867
2.8991518
3.1206972
3.1480884
3.054115
2.7294329
2.3893507
2.1612938
2.0289077
1.9796405
2.0262839
2.1971445
2.4264817
2.210896
1.7568248
1.5984563
1.6379003
1.7667989
1.9444191
2.0969184
2.0589451
2.0344134
2.061531
2.1017365
2.1389217
2.17467
2.2052451
2.2253806
2.2352388
2.2381479
2.23762
2.2362614
1.644721
1.6941661
1.7016853
1.7235422
1.7782345
1.8861908
1.9763439
1.9142123
1.9945881
2.7758721
2.7586668
2.673148
2.6302012
2.6302138
2.6536386
2.6819167
2.7012399
2.7042908
2.6907729
2.6644001
2.629028
2.5903046
2.5465982
2.500221
2.4624597
2.4597673
2.4861262
2.4563818
2.3609972
2.1965197
2.0294718
2.3302572
2.4726987
3.2614943
3.154693
2.3089068
1.990661
1.8574545
1.8045628
1.8126258
1.9192188
2.2304268
2.9161402
1.6907505
1.8537969
2.0113508
2.0495021
2.0815921
2.1224026
2.1624937
2.1977074
2.2266476
2.244463
2.2502535
2.2474339
2.2404892
2.2331709
2.2280838
1.549109
1.5968366
1.5999275
1.6173545
1.6808963
1.8682312
2.2284264
2.8880719
2.7613424
2.7148104
2.7213637
2.7500145
2.7763206
2.786034
2.7754623
2.7489018
2.7136697
2.6760415
2.641898
2.6088233
2.5767364
2.5469422
2.5272927
2.5234213
2.4921391
2.3530669
2.0358373
1.5388432
-1.1735089
0.99118007
1.3721152
1.4862649
1.5313062
1.5365458
1.3651534
1.8854191
1.9618525
2.042883
2.1189931
2.1833573
2.2330096
2.2684857
2.2876139
2.289112
2.2773476
2.2590101
2.2399392
2.2242529
2.214581
1.4570445
1.4966875
1.4834876
1.4592827
1.4023225
1.2115611
2.7659672
2.7266385
2.7368716
2.7863444
2.8403103
2.8729001
2.8737643
2.846495
2.8027677
2.7552399
2.7132531
2.6818528
2.6588687
2.6397036
2.6156792
2.5797325
2.5355879
2.4857447
2.3191175
1.9589587
1.4881787
0.2852454
0.66661747
1.0236447
1.1905926
1.2522336
1.2419848
1.1815574
1.9251046
1.966627
2.0639139
2.1717924
2.2597849
2.3203966
2.3530482
2.3569501
2.3369156
2.3033596
2.2663738
2.2330671
2.2077323
2.1928268
1.376339
1.4041041
1.3761525
1.3238979
1.2398786
1.1384465
2.5746246
2.6082023
2.7184789
2.8466003
2.9429513
2.9839702
2.9698658
2.917146
2.8485397
2.7835727
2.73478
2.706172
2.6967686
2.6972052
2.689468
2.6517418
2.5751252
2.4801077
2.3091225
1.9718732
1.5739396
0.46532743
0.60017967
0.83782565
0.98592346
1.0498653
1.0522892
0.99090993
1.9048743
1.9401925
2.0848391
2.2421468
2.3614117
2.4319925
2.4546821
2.434243
2.3845746
2.3236132
2.2646795
2.2154838
2.1797819
2.1593383
1.3123365
1.3291158
1.2963381
1.2400696
1.1550265
1.0136354
0.82967393
2.1456223
2.3651319
2.6739712
2.9319771
3.0834852
3.1242831
3.0785409
2.9839076
2.8790989
2.7901457
2.7310622
2.7078784
2.7189593
2.7519343
2.7809496
2.7674615
2.6792175
2.5323716
2.335918
2.0058878
1.6439029
0.53506271
0.5906453
0.73910619
0.85483983
0.90845076
0.90309872
0.83011315
1.6787977
1.8082429
2.0854921
2.3340362
2.4980051
2.5741427
2.574664
2.5152767
2.4248736
2.3301831
2.2467434
2.1812479
2.1355963
2.1100016
1.2663284
1.2743919
1.2430917
1.1912411
1.1133951
0.99707011
0.91853935
-0.68023174
0.16765368
1.8520748
2.6122311
3.0775139
3.2870687
3.3021414
3.1953368
3.0354455
2.8768802
2.7568739
2.68834
2.6747261
2.7144722
2.7959823
2.8901052
2.9381822
2.862305
2.6362213
2.3800088
1.9863684
1.3201885
-0.010576052
0.57307707
0.56432333
0.58857004
0.69230648
0.78307628
0.82555194
0.80696981
0.6894741
0.44768479
-0.4712829
0.14221498
1.4269439
2.0490488
2.4538985
2.6764345
2.7459999
2.7060221
2.5908238
2.4416017
2.3056071
2.1979539
2.119589
2.0676066
2.0393213
1.2367104
1.2388979
1.2128046
1.1698758
1.1041391
1.0106325
0.95909723
1.0191913
0.88382522
0.75964153
0.59445495
0.03844653
0.58274604
1.3716033
2.5677806
3.2974599
3.5532851
3.4993344
3.2982332
3.0277278
2.8024412
2.6571043
2.586547
2.5870705
2.6580813
2.800974
2.9953263
3.1533542
3.1331325
2.7034702
2.4387029
2.0115638
1.3054378
0.61244497
0.15654021
0.47156913
0.47551582
0.55104194
0.55166422
0.58170508
0.68001841
0.75970274
0.80044037
0.79293557
0.72169972
0.62922982
0.71973333
0.69160643
0.5779387
0.35572819
-0.083045117
0.44875362
1.0469368
1.9912739
2.5921492
2.8783441
2.9202955
2.843927
2.620446
2.3896168
2.218417
2.0996049
2.0198554
1.9695969
1.9431458
1.219941
1.2191605
1.2002414
1.1692273
1.1209655
1.0478315
0.97632322
0.97454481
0.86580828
0.82998111
0.79711867
0.46871837
0.20686157
0.41688732
3.773702
3.6679942
3.2355962
2.8493778
2.5851367
2.4529266
2.400046
2.4138336
2.4947284
2.6780054
3.0181101
3.366272
2.2569918
2.5304274
2.0544345
0.89161608
0.47942288
0.40547897
-0.62820329
0.36659535
0.36678262
0.49896893
0.51098062
0.59976013
0.70110951
0.77487297
0.82031119
0.8375536
0.82293987
0.77650996
0.76299453
0.68855876
0.64035346
0.55252064
0.27911061
0.26264139
0.25424391
3.0456381
2.95345
2.4138631
2.1746933
2.0233176
1.9319126
1.8736263
1.8379343
1.819578
1.2115823
1.2103686
1.1994114
1.1831122
1.1626048
1.1453958
1.1621391
1.1404187
1.0304815
0.9477929
0.78906531
0.4324427
-0.020923833
2.1450497
2.1697181
2.1036811
2.1055708
2.1096209
2.1231746
2.1455685
2.2130078
2.8424107
-1.4946826
-0.25225315
0.058265382
0.31307978
0.43197849
0.44158944
0.59384114
0.63198339
0.68640518
0.75725465
0.81606337
0.86372961
0.90638813
0.95805614
0.99995775
0.93940544
0.81037232
0.6706374
0.45017883
0.14749971
0.47125718
0.56796886
1.6108178
1.6760017
1.685368
1.6805664
1.6744903
1.6708177
1.2072806
1.207186
1.2028715
1.1989467
1.2013542
1.2257278
1.3014663
1.2851149
1.1856123
1.0341715
0.79061351
0.46559973
0.25664794
-0.60678676
1.2762417
1.6409226
1.7416201
1.7297001
1.5637224
1.0549061
-1.0199216
-0.7345371
-0.26346162
0.24784123
0.56842658
0.69957838
0.80928244
0.85035687
0.80696757
0.82900192
0.8652176
0.90659143
0.9590187
1.0386641
1.1173243
1.0409201
0.87656998
0.63063288
0.26502999
-0.15365363
1.5220651
1.2978259
1.3067318
1.3970009
1.4579346
1.4900464
1.5048946
1.2038406
1.2051503
1.2044402
1.2062842
1.2164889
1.2473062
1.3157444
1.318782
1.2251707
1.0425412
0.76132583
0.45205272
0.22537535
0.68058999
1.0208294
1.313725
1.4172236
1.3892277
1.2250812
0.99973634
-0.85682212
-0.88470836
-0.43682935
0.19466001
0.64034779
0.84831722
0.94396633
0.93260607
0.88299948
0.88593111
0.90566762
0.93347204
0.97158922
1.0282294
1.0658192
1.0051632
0.83077592
0.53594612
0.16703154
-0.073292384
-0.14742079
-0.49011551
0.77467943
1.0904409
1.2326271
1.3028899
1.3351637
1.1997005
1.2018522
1.2017072
1.2032014
1.2094751
1.2264217
1.2626123
1.2685499
1.1830712
1.002421
0.73368901
0.48126324
0.41154581
0.87806189
0.98154591
1.1399108
1.201893
1.1694234
1.0490778
0.87296523
-0.73019212
-0.7710977
-0.41135695
0.20194833
0.65506045
0.86846526
0.9390064
0.92769405
0.91667224
0.92312307
0.93410969
0.94583949
0.95658121
0.96809866
0.98149412
0.91754123
0.74217588
0.43554259
0.067020623
-0.1436017
-0.15052353
0.46762362
0.49679319
0.65381617
0.89782354
1.0496427
1.1354551
1.1769909
1.1946512
1.1968736
1.1954271
1.1933304
1.1909979
1.1892684
1.1911452
1.1840908
1.1123752
0.9524316
0.71834532
0.52734991
0.48494374
0.48836609
0.9727355
0.97397339
0.98868407
1.0493533
1.0692253
1.0298543
0.9304364
0.79072546
-0.4438444
-0.47424862
-0.169578
0.31740798
0.67646497
0.85037103
0.896076
0.91817876
0.9379765
0.95146535
0.95728214
0.95528928
0.94250623
0.91594637
0.90055188
0.83841687
0.67745463
0.390198
0.034975952
-0.16931704
-0.1556594
0.48536733
0.49053226
0.61204502
0.78845
0.91912187
0.99990881
1.0413262
1.1891809
1.1909487
1.1877022
1.1815494
1.171059
1.1541916
1.1312537
1.1031337
1.0469901
0.91366598
0.71520353
0.53373225
0.50944692
0.47739366
0.47150359
0.99829928
0.99180491
0.99508941
0.99880932
1.0034019
0.9919355
0.94705624
0.85802464
0.71322749
0.57672167
0.66003019
0.35607159
0.15468977
0.03031652
0.16700051
0.49210791
0.73516568
0.8463261
0.89029323
0.93425931
0.96662174
0.9814607
0.98249089
0.9711153
0.94507036
0.89667955
0.84575673
0.80134842
0.66923981
0.43026497
0.10709419
-0.12700269
-0.11272762
0.045178654
0.13491164
0.50102523
0.51953585
0.52837796
0.53560809
0.61577594
0.72809437
0.82785027
0.89528185
0.93159256
1.1838443
1.1850706
1.1805431
1.1716297
1.1559694
1.1302947
1.0934502
1.0506576
0.99999233
0.89434734
0.72504949
0.52982313
0.45710451
0.44196558
0.47225796
0.69803089
0.90934096
0.98567852
1.0071818
1.0291645
1.0109497
0.97558082
0.94644967
0.90519868
0.83671929
0.73140767
0.64498715
0.66503578
0.68994457
0.63301989
0.58036808
0.46120612
0.40920507
0.31735424
0.44250534
0.66113535
0.81556716
0.88211016
0.9327322
0.98077484
1.0088548
1.0172218
1.0125621
0.99709379
0.96967576
0.91877121
0.8541118
0.81356156
0.71978026
0.53297316
0.25850775
0.01452724
-0.035519868
0.063694018
0.14637704
0.26621403
0.34146712
0.4437887
0.5022734
0.56740456
0.62584114
0.63769075
0.69410757
0.76393191
0.8166959
0.84659382
1.1788445
1.1798941
1.1751624
1.1655733
1.1484648
1.1202954
1.0790254
1.0290354
0.97652017
0.89450478
0.75601045
0.56958203
0.41269075
0.37068502
0.427378
0.63730275
0.837633
0.95766172
1.0059826
1.0442663
0.99496383
0.94052257
0.91274481
0.88771941
0.85421371
0.81207898
0.77155233
0.72626034
0.66828113
0.61988192
0.5987284
0.57534321
0.52711569
0.52788898
0.64966508
0.80872451
0.91211661
0.96690061
1.0174835
1.0516807
1.0618092
1.0563033
1.0446328
1.0300551
1.0122534
0.97790827
0.9226989
0.87635115
0.81062684
0.67038792
0.44892122
0.22349037
0.11503251
0.12701093
0.19323343
0.28451619
0.3446461
0.41655879
0.49300335
0.58539482
0.66789148
0.62477064
0.66029326
0.71506703
0.75824189
0.78326672
1.173842
1.1754634
1.1718099
1.163784
1.1487227
1.1232168
1.0847582
1.0354404
0.98226019
0.91828735
0.81746148
0.67768276
0.53496393
0.45307166
0.48482872
0.61416866
0.77489558
0.88751016
0.93428906
0.95982042
0.90292446
0.87863235
0.87604758
0.87628871
0.88075635
0.90407727
0.90985627
0.80314814
0.68335771
0.61962979
0.60849641
0.60895304
0.61425566
0.67212398
0.80048728
0.93946868
1.0319662
1.092699
1.1316825
1.1369676
1.1175356
1.0913101
1.070956
1.061178
1.0622933
1.0610795
1.0397153
0.99803976
0.93708922
0.81987931
0.62965168
0.41590519
0.26970312
0.22687372
0.25446325
0.30755622
0.36007833
0.41302907
0.47731347
0.54540649
0.57471111
0.55834018
0.62043286
0.67674967
0.71656578
0.7389188
1.1679144
1.1711684
1.1698923
1.165533
1.1554542
1.1363938
1.1056061
1.0634633
1.0153219
0.96388889
0.89758177
0.81184687
0.72271528
0.66140829
0.65731755
0.70069748
0.75498874
0.77435677
0.77039427
0.76586042
0.75460483
0.80456891
0.83672369
0.85890694
0.88525889
0.93768249
0.95225757
0.84405135
0.73812029
0.67717656
0.65568457
0.65759204
0.68483018
0.76441965
0.90325323
1.0605934
1.1807948
1.2525121
1.2653136
1.2253784
1.1647566
1.1111616
1.0799358
1.0773023
1.1043888
1.150398
1.1884758
1.1814982
1.1098006
0.97804913
0.78241985
0.556407
0.37413787
0.29835907
0.3090592
0.35247932
0.39622426
0.43027039
0.4522228
0.46017921
0.41429607
0.49952817
0.59086884
0.65269056
0.69130665
0.71178926
1.1595752
1.1658015
1.168175
1.1694238
1.1667748
1.1568434
1.1365446
1.1050245
1.0659144
1.0252207
0.9833824
0.93964354
0.8992944
0.86625952
0.84541888
0.82865076
0.77534921
0.66002456
0.57054911
0.54719234
0.66230649
0.75857211
0.80727258
0.83674972
0.86013453
0.89130931
0.91693513
0.85034132
0.78916254
0.74475967
0.71655745
0.70379397
0.72069578
0.7961749
0.94429843
1.17016
1.3656375
1.444979
1.4073251
1.3010937
1.1876359
1.101227
1.0567625
1.0614942
1.1179983
1.2208597
1.3428434
1.420187
1.3309558
1.1464775
0.90620526
0.63296983
0.38291071
0.29885597
0.33322798
0.39765397
0.44623304
0.46549299
0.44636165
0.38320293
0.3886146
0.49872019
0.59086741
0.64862075
0.68274228
0.70015029
1.1467739
1.1576141
1.1649329
1.1737129
1.1807731
1.1821289
1.1738292
1.1537622
1.1241514
1.0920689
1.0650791
1.0486971
1.0447655
1.0368886
1.0022825
0.95176517
0.84196971
0.59067192
0.48521939
0.55874019
0.68820232
0.76078518
0.79698331
0.82026468
0.83242184
0.82838056
0.82198938
0.84321735
0.82621902
0.80145678
0.76497025
0.72330234
0.70274103
0.74373338
0.86867797
1.2422322
1.6048797
1.6587433
1.5299447
1.3342927
1.1615776
1.0420818
0.98344058
0.99169489
1.0740392
1.2326939
1.4490862
1.689377
1.56487
1.2950774
0.99008571
0.63383085
0.17088132
0.17281608
0.30305794
0.43211004
0.50640761
0.52146778
0.48465282