/*--------------------------------*- C++ -*----------------------------------*\
  =========                 |
  \\      /  F ield         | OpenFOAM: The Open Source CFD Toolbox
   \\    /   O peration     | Website:  https://openfoam.org
    \\  /    A nd           | Version:  7
     \\/     M anipulation  |
\*---------------------------------------------------------------------------*/
FoamFile
{
    version     2.0;
    format      ascii;
    class       surfaceScalarField;
    location    "50/fluid";
    object      phi;
}
// * * * * * * * * * * * * * * * * * * * * * * * * * * * * * * * * * * * * * //

dimensions      [1 0 -1 0 0 0 0];

internalField   nonuniform List<scalar> 
33732
(
-9.5359359e-10
-6.1297496e-07
6.1392856e-07
6.1296886e-07
9.426503e-10
-1.4115086e-09
6.1296647e-07
1.8789389e-09
-2.3454099e-09
6.1296095e-07
2.8088595e-09
-3.2698143e-09
6.1295179e-07
3.7260403e-09
-4.1778296e-09
6.1293673e-07
4.6223185e-09
-5.0590494e-09
6.1291134e-07
5.4841036e-09
-5.8954417e-09
6.1286825e-07
6.2874126e-09
-6.6556606e-09
6.1279703e-07
6.9919497e-09
-7.2889805e-09
6.1268531e-07
7.5351781e-09
-7.7204913e-09
6.1252195e-07
7.8299371e-09
-7.8518868e-09
6.1230267e-07
7.7697971e-09
-7.5724622e-09
6.1203695e-07
7.2456043e-09
-6.7825588e-09
6.117541e-07
6.1766072e-09
-5.4307039e-09
6.1150186e-07
4.5503805e-09
-3.5522391e-09
6.113357e-07
2.4562569e-09
-1.2919531e-09
6.1129932e-07
9.2981136e-11
1.1077015e-09
6.1139897e-07
-2.2793741e-09
3.3804027e-09
6.1163516e-07
-4.3790544e-09
5.243897e-09
6.1195868e-07
-5.9549763e-09
6.4963002e-09
6.123051e-07
-6.864446e-09
7.0593483e-09
6.1261762e-07
-7.0922033e-09
6.9745845e-09
6.1286178e-07
-6.7264131e-09
6.3646347e-09
6.1302584e-07
-5.9121699e-09
5.3863256e-09
6.1311499e-07
-4.8086114e-09
4.1936235e-09
6.1314239e-07
-3.5594868e-09
2.9170946e-09
6.131225e-07
-2.2808653e-09
1.6583621e-09
6.1306694e-07
-1.0610162e-09
4.9407291e-10
6.1298291e-07
3.2741771e-11
-5.1565546e-10
6.1287399e-07
9.465818e-10
-1.3205763e-09
6.1273706e-07
1.6285965e-09
-1.8656588e-09
6.1257242e-07
2.0227781e-09
-2.0951945e-09
6.1238414e-07
2.0750561e-09
-1.9591954e-09
6.1218358e-07
1.7426542e-09
-1.426233e-09
6.1199194e-07
1.0104324e-09
-5.0237394e-10
6.1183622e-07
-8.9930542e-11
7.5371442e-10
6.1174201e-07
-1.4749626e-09
2.2329498e-09
6.1173373e-07
-3.0073341e-09
3.7736084e-09
6.1181856e-07
-4.5094135e-09
5.1908545e-09
6.1198448e-07
-5.7986029e-09
6.3141275e-09
6.1220307e-07
-6.7253599e-09
7.0222877e-09
6.1243825e-07
-7.2020201e-09
7.2637678e-09
6.12656e-07
-7.2133678e-09
7.0573722e-09
6.1283239e-07
-6.8076184e-09
6.4752295e-09
6.1295534e-07
-6.0750882e-09
5.6197527e-09
6.1302349e-07
-5.1243893e-09
4.6008976e-09
6.1304198e-07
-4.063079e-09
3.521103e-09
6.1301838e-07
-2.9867898e-09
2.4684092e-09
6.1295989e-07
-1.9759117e-09
1.5160237e-09
6.1287193e-07
-1.0972757e-09
7.253471e-10
6.1275828e-07
-4.0777651e-10
1.4949601e-10
6.1262233e-07
4.2845854e-11
-1.6517489e-10
6.1246923e-07
2.1217178e-10
-1.8139956e-10
6.1230873e-07
7.0020083e-11
1.2125455e-10
6.1215634e-07
-3.9136463e-10
7.3502927e-10
6.1203311e-07
-1.1458373e-09
1.6127319e-09
6.1196272e-07
-2.1232371e-09
2.6605203e-09
6.1196532e-07
-3.2069076e-09
3.741588e-09
6.1205029e-07
-4.2444265e-09
4.6941396e-09
6.1221113e-07
-5.0721931e-09
5.3610674e-09
6.1242565e-07
-5.547802e-09
5.6221503e-09
6.1266154e-07
-5.5794432e-09
5.4179036e-09
6.128863e-07
-5.1410302e-09
4.7547255e-09
6.130739e-07
-4.2690567e-09
3.6951545e-09
6.132082e-07
-3.0470186e-09
2.3388192e-09
8.0608776e-10
6.1328042e-07
-1.5865107e-09
-1.9109048e-09
-6.1536129e-07
6.1727219e-07
-6.1391724e-07
6.153426e-07
2.8594975e-09
-4.2848672e-09
-6.1390939e-07
6.1532612e-07
5.7059106e-09
-7.1226348e-09
-6.1389299e-07
6.152937e-07
8.5313507e-09
-9.9320606e-09
-6.1386585e-07
6.1524082e-07
1.1320303e-08
-1.2695275e-08
-6.1382117e-07
6.1515421e-07
1.4050828e-08
-1.5383868e-08
-6.1374551e-07
6.1500716e-07
1.6685047e-08
-1.7946696e-08
-6.1361666e-07
6.1475483e-07
1.9153996e-08
-2.0292165e-08
-6.1340301e-07
6.1433269e-07
2.1338157e-08
-2.2267839e-08
-6.1306662e-07
6.1366261e-07
2.3047627e-08
-2.3643612e-08
-6.1257278e-07
6.1267213e-07
2.4011717e-08
-2.411107e-08
-6.1190755e-07
6.1132997e-07
2.38923e-08
-2.3314712e-08
-6.1109965e-07
6.0969132e-07
2.233531e-08
-2.0926976e-08
-6.1023805e-07
6.0793516e-07
1.9069512e-08
-1.6766626e-08
-6.0946818e-07
6.0635875e-07
1.4036706e-08
-1.0927272e-08
-6.0895908e-07
6.053098e-07
7.5030146e-09
-3.8537305e-09
-6.0884345e-07
6.0506331e-07
8.6382884e-11
3.693764e-09
-6.091475e-07
6.0568116e-07
-7.3812412e-09
1.084758e-08
-6.0986791e-07
6.0715332e-07
-1.3986849e-08
1.6701439e-08
-6.1085509e-07
6.0917116e-07
-1.8924206e-08
2.0608135e-08
-6.1191169e-07
6.1132662e-07
-2.1740063e-08
2.2325138e-08
-6.128641e-07
6.1326342e-07
-2.2396782e-08
2.1997467e-08
-6.1360699e-07
6.1476709e-07
-2.1188078e-08
2.0027984e-08
-6.1410501e-07
6.1576888e-07
-1.8586223e-08
1.6922349e-08
-6.1437436e-07
6.1630499e-07
-1.5100037e-08
1.3169406e-08
-6.1445579e-07
6.1646108e-07
-1.1182582e-08
9.1772935e-09
-6.1439377e-07
6.1632927e-07
-7.1935207e-09
5.2580149e-09
-6.1422395e-07
6.1598278e-07
-3.401248e-09
1.6424187e-09
-6.1396834e-07
6.1546614e-07
-6.6378741e-12
-1.4911553e-09
-6.1363734e-07
6.147994e-07
2.829889e-09
-3.9919458e-09
-6.1322215e-07
6.1396431e-07
4.9532597e-09
-5.6954179e-09
-6.1272284e-07
6.1295862e-07
6.1935443e-09
-6.4293237e-09
-6.1215122e-07
6.1180362e-07
6.3802571e-09
-6.0326586e-09
-6.1154141e-07
6.10567e-07
5.3724628e-09
-4.3980572e-09
-6.1095742e-07
6.0937756e-07
3.111951e-09
-1.5320892e-09
-6.1048153e-07
6.0840439e-07
-3.1529516e-10
2.3924331e-09
-6.1019358e-07
6.0781319e-07
-4.6528203e-09
7.0332148e-09
-6.1016756e-07
6.0775656e-07
-9.4669914e-09
1.1877986e-08
-6.1042585e-07
6.0828174e-07
-1.4192812e-08
1.6336926e-08
-6.1093182e-07
6.0931385e-07
-1.8246607e-08
1.9864578e-08
-6.115987e-07
6.1067459e-07
-2.1150479e-08
2.2074587e-08
-6.123161e-07
6.1213701e-07
-2.2626247e-08
2.280533e-08
-6.1298002e-07
6.1348809e-07
-2.2628928e-08
2.2120855e-08
-6.1351718e-07
6.1457767e-07
-2.1317565e-08
2.0257073e-08
-6.1389092e-07
6.1533238e-07
-1.8984931e-08
1.7543467e-08
-6.1409733e-07
6.157459e-07
-1.5978618e-08
1.4330039e-08
-6.1415239e-07
6.1585258e-07
-1.2638836e-08
1.0938652e-08
-6.140796e-07
6.157015e-07
-9.2639838e-09
7.6420848e-09
-6.1390104e-07
6.1533823e-07
-6.10144e-09
4.6642432e-09
-6.1363329e-07
6.1479641e-07
-3.3546345e-09
2.1915203e-09
-6.1328775e-07
6.1409839e-07
-1.1962566e-09
3.8562172e-10
-6.1287453e-07
6.1326351e-07
2.2131888e-10
-6.1029521e-10
-6.1240894e-07
6.1232096e-07
7.6555971e-10
-6.7758351e-10
-6.1192028e-07
6.1132907e-07
3.3791784e-10
2.5328663e-10
-6.1145569e-07
6.1038268e-07
-1.0925335e-09
2.1655451e-09
-6.1107929e-07
6.0961236e-07
-3.4519061e-09
4.9188413e-09
-6.1086348e-07
6.0916686e-07
-6.5264544e-09
8.2230716e-09
-6.1087009e-07
6.0917437e-07
-9.9517545e-09
1.1647478e-08
-6.1112814e-07
6.0969609e-07
-1.3244913e-08
1.4676963e-08
-6.1161814e-07
6.1069334e-07
-1.5883042e-08
1.6807844e-08
-6.1227236e-07
6.1202725e-07
-1.7408842e-08
1.7653953e-08
-6.1299205e-07
6.1349504e-07
-1.7527202e-08
1.7024218e-08
-6.1367755e-07
6.1489118e-07
-1.6155873e-08
1.4942249e-08
-6.1424952e-07
6.1605413e-07
-1.3414891e-08
1.1610276e-08
-6.1465939e-07
6.168866e-07
-9.5720541e-09
7.344842e-09
2.5158055e-09
-6.14885e-07
6.1734688e-07
-4.9776917e-09
-2.8748699e-09
-6.196642e-07
6.2253907e-07
-6.1724692e-07
6.196302e-07
4.7784891e-09
-7.1617673e-09
-6.1721901e-07
6.1958797e-07
9.5382935e-09
-1.190725e-08
-6.171663e-07
6.1951116e-07
1.4264435e-08
-1.6609291e-08
-6.1708169e-07
6.1939067e-07
1.8936939e-08
-2.124592e-08
-6.1694402e-07
6.1919703e-07
2.3529284e-08
-2.5782292e-08
-6.1670958e-07
6.1886648e-07
2.7993202e-08
-3.01501e-08
-6.1630348e-07
6.1828664e-07
3.2232092e-08
-3.421525e-08
-6.1561603e-07
6.1728917e-07
3.606395e-08
-3.7737089e-08
-6.145119e-07
6.1566167e-07
3.9179203e-08
-4.0328974e-08
-6.128622e-07
6.1319527e-07
4.1109796e-08
-4.1442865e-08
-6.1060528e-07
6.097783e-07
4.1237876e-08
-4.04109e-08
-6.0782713e-07
6.0552524e-07
3.8878134e-08
-3.6576243e-08
-6.0482817e-07
6.0088903e-07
3.3459521e-08
-2.9520385e-08
-6.02118e-07
5.9666218e-07
2.478474e-08
-1.9328919e-08
-6.002991e-07
5.937951e-07
1.3269318e-08
-6.7653123e-09
-5.9985473e-07
5.9306353e-07
2.0356107e-11
6.7708407e-09
-6.0090374e-07
5.9467271e-07
-1.3404247e-08
1.9635276e-08
-6.034282e-07
5.985984e-07
-2.5257605e-08
3.0087407e-08
-6.0688886e-07
6.0397935e-07
-3.3996946e-08
3.6906452e-08
-6.1057279e-07
6.0967871e-07
-3.8796793e-08
3.9690881e-08
-6.1386536e-07
6.1473424e-07
-3.9657831e-08
3.8788943e-08
-6.1640304e-07
6.1859222e-07
-3.7200864e-08
3.5011682e-08
-6.180773e-07
6.2110381e-07
-3.2347326e-08
2.9320824e-08
-6.1895867e-07
6.2239625e-07
-2.6043075e-08
2.2605491e-08
-6.1919992e-07
6.227185e-07
-1.9094312e-08
1.5575737e-08
-6.1896176e-07
6.2232512e-07
-1.2112164e-08
8.7487962e-09
-6.1837e-07
6.2141155e-07
-5.530382e-09
2.4888254e-09
-6.1750008e-07
6.2009362e-07
3.4107693e-10
-2.9346199e-09
-6.1638304e-07
6.1841171e-07
5.260611e-09
-7.289282e-09
-6.1498593e-07
6.1631129e-07
8.983344e-09
-1.0308707e-08
-6.1329928e-07
6.1376669e-07
1.1223572e-08
-1.1690986e-08
-6.1135295e-07
6.1081138e-07
1.1669767e-08
-1.1128198e-08
-6.0925735e-07
6.0760503e-07
1.0037319e-08
-8.3850019e-09
-6.0722902e-07
6.044765e-07
6.1709603e-09
-3.4184403e-09
-6.0556011e-07
6.0188241e-07
1.7114337e-10
3.5065514e-09
-6.0453947e-07
6.002824e-07
-7.5296467e-09
1.1786714e-08
-6.0443341e-07
6.000994e-07
-1.6152255e-08
2.0486268e-08
-6.0532658e-07
6.0147272e-07
-2.4649292e-08
2.8503155e-08
-6.0709044e-07
6.0420179e-07
-3.192676e-08
3.4815411e-08
-6.0941641e-07
6.0780079e-07
-3.7093285e-08
3.8708903e-08
-6.1191206e-07
6.1165329e-07
-3.9643533e-08
3.9902303e-08
-6.1421071e-07
6.1518642e-07
-3.9518849e-08
3.8543135e-08
-6.1605537e-07
6.1800308e-07
-3.7044094e-08
3.5096386e-08
-6.1732423e-07
6.1992231e-07
-3.278348e-08
3.0185401e-08
-6.1801115e-07
6.2094447e-07
-2.7383508e-08
2.4450188e-08
-6.1817916e-07
6.2117587e-07
-2.1455518e-08
1.8458817e-08
-6.1791505e-07
6.2075621e-07
-1.5516598e-08
1.2675434e-08
-6.1729768e-07
6.1980926e-07
-9.9804368e-09
7.4688597e-09
-6.1638379e-07
6.1842108e-07
-5.1784155e-09
3.1411306e-09
-6.1520936e-07
6.1664267e-07
-1.3910489e-09
-4.226867e-11
-6.1380389e-07
6.145125e-07
1.1269378e-09
-1.8355435e-09
-6.1221239e-07
6.120908e-07
2.1395688e-09
-2.0179808e-09
-6.1053038e-07
6.0951608e-07
1.4530737e-09
-4.3877455e-10
-6.089168e-07
6.0702839e-07
-1.0218845e-09
2.9102952e-09
-6.0759403e-07
6.0496957e-07
-5.1935896e-09
7.8180585e-09
-6.0681921e-07
6.0374354e-07
-1.0713594e-08
1.3789273e-08
-6.068167e-07
6.0370843e-07
-1.6940644e-08
2.0048917e-08
-6.0769636e-07
6.0504507e-07
-2.2991228e-08
2.5642518e-08
-6.093946e-07
6.0766015e-07
-2.7887234e-08
2.9621686e-08
-6.1167223e-07
6.1117967e-07
-3.0764623e-08
3.125719e-08
-6.1417824e-07
6.1505043e-07
-3.1069776e-08
3.0197589e-08
-6.1655672e-07
6.1871288e-07
-2.8662858e-08
2.65067e-08
-6.1853209e-07
6.2174167e-07
-2.3789025e-08
2.0579447e-08
-6.1994227e-07
6.2389482e-07
-1.6957689e-08
1.3005135e-08
4.4477801e-09
-6.2072187e-07
6.250825e-07
-8.8084079e-09
-3.8575713e-09
-6.2590293e-07
6.2976051e-07
-6.2249724e-07
6.2585039e-07
6.7223288e-09
-1.007548e-08
-6.2243782e-07
6.2577037e-07
1.3418981e-08
-1.6751524e-08
-6.2233376e-07
6.2563587e-07
2.0068879e-08
-2.3370998e-08
-6.2217534e-07
6.2543928e-07
2.6654009e-08
-2.9917948e-08
-6.2192541e-07
6.2513804e-07
3.3157707e-08
-3.6370333e-08
-6.2149845e-07
6.2462479e-07
3.9545621e-08
-4.267196e-08
-6.2073812e-07
6.2369369e-07
4.5727095e-08
-4.8682661e-08
-6.1940327e-07
6.2201598e-07
5.1494483e-08
-5.4107191e-08
-6.1718081e-07
6.1915028e-07
5.6444003e-08
-5.8413473e-08
-6.1375035e-07
6.1462465e-07
5.989968e-08
-6.0773977e-08
-6.0892017e-07
6.081232e-07
6.088771e-08
-6.0090734e-08
-6.0282253e-07
5.9977023e-07
5.8230897e-08
-5.5178598e-08
-5.9609327e-07
5.9041077e-07
5.0833084e-08
-4.5150586e-08
-5.8989063e-07
5.8166933e-07
3.8148092e-08
-2.9926793e-08
-5.856296e-07
5.7557663e-07
2.0664424e-08
-1.0611456e-08
-5.8448819e-07
5.7385476e-07
1.0754325e-10
1.0525882e-08
-5.8680126e-07
5.7703422e-07
-2.09362e-08
3.070324e-08
-5.9254602e-07
5.8511239e-07
-3.9462573e-08
4.6896206e-08
-6.0041715e-07
5.9617119e-07
-5.2792442e-08
5.7038403e-08
-6.0869684e-07
6.0769823e-07
-5.9626158e-08
6.0624767e-08
-6.1596856e-07
6.1769489e-07
-6.0173241e-08
5.8446911e-08
-6.214473e-07
6.2510749e-07
-5.5651137e-08
5.1990956e-08
-6.2495295e-07
6.2974851e-07
-4.7671738e-08
4.2876183e-08
-6.2670343e-07
6.3197653e-07
-3.7772896e-08
3.2499798e-08
-6.2708201e-07
6.3235917e-07
-2.7178423e-08
2.1901267e-08
-6.2646803e-07
6.3143803e-07
-1.674879e-08
1.1778786e-08
-6.2514578e-07
6.2960806e-07
-7.0432118e-09
2.5809267e-09
-6.2328218e-07
6.2709892e-07
1.5713744e-09
-5.3881124e-09
-6.2092165e-07
6.2394945e-07
8.8285282e-09
-1.1856319e-08
-6.1797884e-07
6.2003089e-07
1.442149e-08
-1.6473545e-08
-6.143975e-07
6.1523502e-07
1.7949626e-08
-1.8787151e-08
-6.1020387e-07
6.0956171e-07
1.8916067e-08
-1.8273912e-08
-6.0560947e-07
6.032707e-07
1.6802165e-08
-1.4463401e-08
-6.0108138e-07
5.9699397e-07
1.1240261e-08
-7.1528496e-09
-5.9729093e-07
5.9168029e-07
2.2518946e-09
3.3587409e-09
-5.9492684e-07
5.8831977e-07
-9.5545505e-09
1.6161623e-08
-5.9462666e-07
5.8784423e-07
-2.2971314e-08
2.9753745e-08
-5.9660721e-07
5.9057925e-07
-3.6274099e-08
4.230206e-08
-6.0057324e-07
5.9610561e-07
-4.7635015e-08
5.2102651e-08
-6.0580275e-07
6.0338908e-07
-5.5582206e-08
5.7995873e-08
-6.1138327e-07
6.1113092e-07
-5.9319288e-08
5.9571637e-08
-6.1647246e-07
6.1814145e-07
-5.8816864e-08
5.7147878e-08
-6.2049545e-07
6.2362518e-07
-5.4684124e-08
5.155439e-08
-6.2320353e-07
6.272608e-07
-4.7895638e-08
4.3838369e-08
-6.2461542e-07
6.2910535e-07
-3.9508998e-08
3.5019076e-08
-6.2490113e-07
6.294209e-07
-3.0471203e-08
2.595143e-08
-6.242729e-07
6.2851742e-07
-2.1537451e-08
1.7292933e-08
-6.2291309e-07
6.2665221e-07
-1.3276619e-08
9.5374916e-09
-6.2094349e-07
6.2398911e-07
-6.1237402e-09
3.0781274e-09
-6.1842962e-07
6.2060577e-07
-4.4578421e-10
-1.7303675e-09
-6.1541544e-07
6.1654378e-07
3.4055216e-09
-4.5338546e-09
-6.1197143e-07
6.1187386e-07
5.0693689e-09
-4.9717976e-09
-6.0828197e-07
6.0682492e-07
4.2054298e-09
-2.7483893e-09
-6.0468444e-07
6.0184547e-07
5.9220714e-10
2.2467581e-09
-6.016717e-07
5.9761498e-07
-5.7307147e-09
9.787433e-09
-5.9984126e-07
5.9498411e-07
-1.4313685e-08
1.9170836e-08
-5.9973376e-07
5.947398e-07
-2.4192497e-08
2.9186454e-08
-6.0163189e-07
5.9730988e-07
-3.3948761e-08
3.8270771e-08
-6.0540938e-07
6.0253467e-07
-4.1956553e-08
4.4831266e-08
-6.1051547e-07
6.0963439e-07
-4.6757258e-08
4.7638339e-08
-6.1612666e-07
6.1742664e-07
-4.7428866e-08
4.6128883e-08
-6.2141378e-07
6.2472867e-07
-4.3783056e-08
4.0468171e-08
-6.2576119e-07
6.3068844e-07
-3.6288224e-08
3.1360972e-08
-6.2883417e-07
6.3487003e-07
-2.5815176e-08
1.9779309e-08
6.7531922e-09
-6.3052244e-07
6.3715449e-07
-1.338524e-08
-4.8731979e-09
-6.3412153e-07
6.3899473e-07
-6.2969707e-07
6.3404237e-07
8.7152363e-09
-1.3060532e-08
-6.2959219e-07
6.3390667e-07
1.7391388e-08
-2.1705861e-08
-6.2942369e-07
6.3369886e-07
2.5999974e-08
-3.0275146e-08
-6.2918989e-07
6.3342901e-07
3.4530171e-08
-3.8769284e-08
-6.2884716e-07
6.3305923e-07
4.2992914e-08
-4.720498e-08
-6.2826885e-07
6.3244932e-07
5.1403047e-08
-5.5583516e-08
-6.2719655e-07
6.312884e-07
5.9731357e-08
-6.3823207e-08
-6.2519945e-07
6.2903078e-07
6.781554e-08
-7.164687e-08
-6.2167594e-07
6.2487933e-07
7.5224526e-08
-7.8427916e-08
-6.159505e-07
6.1789018e-07
8.1095978e-08
-8.303566e-08
-6.075197e-07
6.0728341e-07
8.4014225e-08
-8.3777936e-08
-5.9645354e-07
5.9299473e-07
8.2057055e-08
-7.8598244e-08
-5.8382391e-07
5.7632255e-07
7.3185229e-08
-6.5683869e-08
-5.7184293e-07
5.6021603e-07
5.606322e-08
-4.443632e-08
-5.6335626e-07
5.4860627e-07
3.1057636e-08
-1.6307649e-08
-5.6081297e-07
5.4490161e-07
7.2143446e-10
1.5189931e-08
-5.6504094e-07
5.5037689e-07
-3.0828739e-08
4.5492792e-08
-5.7610241e-07
5.6526406e-07
-5.852885e-08
6.9367193e-08
-5.9122302e-07
5.8556498e-07
-7.7677617e-08
8.3335657e-08
-6.0679633e-07
6.0614994e-07
-8.6396785e-08
8.704317e-08
-6.2009163e-07
6.2338916e-07
-8.5554399e-08
8.2256866e-08
-6.2975924e-07
6.3563083e-07
-7.7503022e-08
7.1631431e-08
-6.3565081e-07
6.4284585e-07
-6.4960969e-08
5.776593e-08
-6.3833725e-07
6.4591806e-07
-5.0284238e-08
4.2703423e-08
-6.3863522e-07
6.4599556e-07
-3.5177253e-08
2.7816913e-08
-6.3729366e-07
6.4408755e-07
-2.0710697e-08
1.3916808e-08
-6.3484253e-07
6.4088589e-07
-7.4822968e-09
1.438935e-09
-6.3158589e-07
6.367786e-07
4.1850169e-09
-9.3777268e-09
-6.2754351e-07
6.3175127e-07
1.4095638e-08
-1.8303399e-08
-6.2252598e-07
6.2552909e-07
2.1942118e-08
-2.494522e-08
-6.163427e-07
6.1779789e-07
2.7223733e-08
-2.8678916e-08
-6.0893673e-07
6.0839802e-07
2.9195023e-08
-2.8656308e-08
-6.0060279e-07
5.9763118e-07
2.6947255e-08
-2.3975647e-08
-5.9216374e-07
5.8653374e-07
1.967796e-08
-1.4047963e-08
-5.8492472e-07
5.7686224e-07
7.1306214e-09
9.318559e-10
-5.8027166e-07
5.7054127e-07
-9.9624146e-09
1.9692802e-08
-5.7953602e-07
5.694212e-07
-2.9801661e-08
3.9916484e-08
-5.8319956e-07
5.7422372e-07
-4.9651003e-08
5.8626844e-08
-5.9067855e-07
5.8413969e-07
-6.651701e-08
7.3055871e-08
-6.005262e-07
5.971748e-07
-7.8056117e-08
8.1407523e-08
-6.1094295e-07
6.1088287e-07
-8.3087165e-08
8.3147245e-08
-6.2029424e-07
6.2306026e-07
-8.1709966e-08
7.894395e-08
-6.2751516e-07
6.323172e-07
-7.5052914e-08
7.0250871e-08
-6.3221332e-07
6.3820273e-07
-6.4754591e-08
5.8765187e-08
-6.3451573e-07
6.4096196e-07
-5.246805e-08
4.6021819e-08
-6.3481556e-07
6.4117208e-07
-3.9564609e-08
3.3208085e-08
-6.3355252e-07
6.3944307e-07
-2.7047167e-08
2.1156616e-08
-6.3107837e-07
6.362439e-07
-1.5601866e-08
1.0436337e-08
-6.2760483e-07
6.318399e-07
-5.712021e-09
1.476952e-09
-6.2321822e-07
6.2631815e-07
2.2144795e-09
-5.3144014e-09
-6.1794093e-07
6.1965914e-07
7.7557808e-09
-9.4739865e-09
-6.1183032e-07
6.1188403e-07
1.0395601e-08
-1.044931e-08
-6.0515048e-07
6.0327279e-07
9.5652075e-09
-7.6875176e-09
-5.9847251e-07
5.9452115e-07
4.7767464e-09
-8.2538922e-10
-5.9270028e-07
5.8680974e-07
-4.1351076e-09
1.0025647e-08
-5.8901433e-07
5.8173438e-07
-1.6710399e-08
2.3990347e-08
-5.8853357e-07
5.8086774e-07
-3.1613185e-08
3.9279012e-08
-5.9189164e-07
5.8513421e-07
-4.6660344e-08
5.3417771e-08
-5.9889967e-07
5.9432771e-07
-5.9227289e-08
6.3799252e-08
-6.0848301e-07
6.0699518e-07
-6.6905712e-08
6.8393537e-08
-6.189819e-07
6.2083727e-07
-6.8199724e-08
6.6344358e-08
-6.2875036e-07
6.3359832e-07
-6.2920822e-08
5.8072858e-08
-6.3664811e-07
6.4379324e-07
-5.1979682e-08
4.4834553e-08
-6.4213774e-07
6.5079715e-07
-3.6836905e-08
2.8177502e-08
9.5974859e-09
-6.4511485e-07
6.5456042e-07
-1.9043059e-08
-5.9434466e-09
-6.4439529e-07
6.5033874e-07
-6.3889708e-07
6.4427045e-07
1.0789857e-08
-1.6163232e-08
-6.3872215e-07
6.4404424e-07
2.1512793e-08
-2.6834874e-08
-6.3846693e-07
6.4372859e-07
3.21252e-08
-3.7386853e-08
-6.3816055e-07
6.4338118e-07
4.262249e-08
-4.7843126e-08
-6.3778077e-07
6.4300897e-07
5.3058952e-08
-5.8287152e-08
-6.3718425e-07
6.4248126e-07
6.3541784e-08
-6.8838793e-08
-6.3601325e-07
6.4140626e-07
7.4184561e-08
-7.9577576e-08
-6.3359817e-07
6.3898873e-07
8.4993557e-08
-9.0384115e-08
-6.2890896e-07
6.3392967e-07
9.5658208e-08
-1.0067891e-07
-6.2065352e-07
6.2449499e-07
1.0524381e-07
-1.0908529e-07
-6.0765302e-07
6.0894228e-07
1.1185653e-07
-1.1314579e-07
-5.8958146e-07
5.8648375e-07
1.1248377e-07
-1.0938605e-07
-5.6792984e-07
5.5870743e-07
1.0339789e-07
-9.4175481e-08
-5.4656514e-07
5.3061524e-07
8.1545164e-08
-6.5595268e-08
-5.3088213e-07
5.0962223e-07
4.6701607e-08
-2.5441706e-08
-5.255325e-07
5.0194077e-07
2.6256051e-09
2.0966129e-08
-5.3245406e-07
5.1046515e-07
-4.4345086e-08
6.6333987e-08
-5.5228919e-07
5.3679199e-07
-8.5676245e-08
1.0117345e-07
-5.7923006e-07
5.7230992e-07
-1.1238464e-07
1.1930479e-07
-6.0599813e-07
6.0667851e-07
-1.2220267e-07
1.2152229e-07
-6.2790045e-07
6.3403025e-07
-1.1781925e-07
1.1168944e-07
-6.4301556e-07
6.5226944e-07
-1.0372727e-07
9.4473391e-08
-6.5156221e-07
6.6205969e-07
-8.4403708e-08
7.3906227e-08
-6.5487522e-07
6.6537238e-07
-6.3293574e-08
5.279641e-08
-6.5453672e-07
6.6434816e-07
-4.2586555e-08
3.2775117e-08
-6.5187667e-07
6.6070414e-07
-2.3437789e-08
1.4610319e-08
-6.4777708e-07
6.5553598e-07
-6.3189318e-09
-1.4399717e-09
-6.4271496e-07
6.4942184e-07
8.6733803e-09
-1.5380259e-08
-6.3662962e-07
6.4223114e-07
2.1547686e-08
-2.7149203e-08
-6.291239e-07
6.3340309e-07
3.2128838e-08
-3.6408027e-08
-6.1970695e-07
6.2220133e-07
3.9868746e-08
-4.2363129e-08
-6.0804977e-07
6.0803327e-07
4.3705175e-08
-4.368867e-08
-5.9441074e-07
5.9102986e-07
4.2092271e-08
-3.871139e-08
-5.8005371e-07
5.7267873e-07
3.3377814e-08
-2.6002831e-08
-5.6729838e-07
5.560019e-07
1.660281e-08
-5.3063309e-09
-5.588291e-07
5.4474845e-07
-7.5566386e-09
2.1637292e-08
-5.5714337e-07
5.4223817e-07
-3.64347e-08
5.1339904e-08
-5.6334568e-07
5.5017399e-07
-6.5701131e-08
7.8872824e-08
-5.7630613e-07
5.6695186e-07
-9.0335065e-08
9.9689335e-08
-5.9329898e-07
5.8886291e-07
-1.0666092e-07
1.1109699e-07
-6.1104663e-07
6.1156767e-07
-1.1299178e-07
1.1247074e-07
-6.2661488e-07
6.3118598e-07
-1.0977068e-07
1.0519958e-07
-6.3822728e-07
6.4548797e-07
-9.9107314e-08
9.1846617e-08
-6.4540451e-07
6.5402522e-07
-8.3755671e-08
7.5134963e-08
-6.485815e-07
6.5752702e-07
-6.6245658e-08
5.7300139e-08
-6.4859014e-07
6.5717303e-07
-4.847079e-08
3.9887902e-08
-6.4626099e-07
6.5407549e-07
-3.1652811e-08
2.3838311e-08
-6.422065e-07
6.4901995e-07
-1.6502564e-08
9.6891108e-09
-6.3674955e-07
6.4238502e-07
-3.4427722e-09
-2.1927045e-09
-6.2996621e-07
6.3423032e-07
7.1755714e-09
-1.1439684e-08
-6.2176746e-07
6.2434906e-07
1.4908768e-08
-1.7490366e-08
-6.1209956e-07
6.1256356e-07
1.9073397e-08
-1.9537396e-08
-6.0122612e-07
5.9906917e-07
1.8752672e-08
-1.659572e-08
-5.8995932e-07
5.8477237e-07
1.2959411e-08
-7.7724682e-09
-5.7980989e-07
5.7155527e-07
1.0179075e-09
7.2367167e-09
-5.7290448e-07
5.6222838e-07
-1.6835532e-08
2.7511628e-08
-5.7143198e-07
5.5983089e-07
-3.8882833e-08
5.0483923e-08
-5.767283e-07
5.6627365e-07
-6.1789164e-08
7.2243816e-08
-5.88595e-07
5.8141158e-07
-8.1307492e-08
8.8490905e-08
-6.0509548e-07
6.0269565e-07
-9.3407801e-08
9.5807633e-08
-6.2306294e-07
6.2576351e-07
-9.5615211e-08
9.2914641e-08
-6.3943199e-07
6.4646046e-07
-8.7911268e-08
8.0882805e-08
-6.523153e-07
6.624487e-07
-7.2143797e-08
6.2010402e-08
-6.6103881e-07
6.73083e-07
-5.0785606e-08
3.8741407e-08
1.3147872e-08
-6.656723e-07
6.7865151e-07
-2.6127079e-08
-7.1061305e-09
-6.568497e-07
6.6395584e-07
-6.5017917e-07
6.5664043e-07
1.3001034e-08
-1.9462296e-08
-6.4988483e-07
6.5625492e-07
2.5882045e-08
-3.2252139e-08
-6.4948883e-07
6.557488e-07
3.8565638e-08
-4.4825605e-08
-6.4908848e-07
6.5527186e-07
5.1037897e-08
-5.7221275e-08
-6.4873729e-07
6.5494573e-07
6.3398839e-08
-6.9607282e-08
-6.4834032e-07
6.5474224e-07
7.5887219e-08
-8.228914e-08
-6.474951e-07
6.5428489e-07
8.8861382e-08
-9.5651173e-08
-6.4529058e-07
6.5257487e-07
1.0268656e-07
-1.0997085e-07
-6.4012976e-07
6.4770419e-07
1.1745641e-07
-1.2503084e-07
-6.2973082e-07
6.3673451e-07
1.3248337e-07
-1.3948706e-07
-6.11572e-07
6.1609176e-07
1.4556506e-07
-1.5008482e-07
-5.8410093e-07
5.8300704e-07
1.5225325e-07
-1.5115936e-07
-5.4879898e-07
5.3846343e-07
1.4585523e-07
-1.3551967e-07
-5.1204541e-07
4.9044425e-07
1.1957962e-07
-9.7978456e-08
-4.8414527e-07
4.5361383e-07
7.1453875e-08
-4.0922435e-08
-4.731584e-07
4.379663e-07
7.5072995e-09
2.7684799e-08
-4.8328939e-07
4.4929795e-07
-6.3238774e-08
9.7230212e-08
-5.1832033e-07
4.9638471e-07
-1.2693562e-07
1.4887124e-07
-5.6501825e-07
5.5776047e-07
-1.6311059e-07
1.7036836e-07
-6.086817e-07
6.1269369e-07
-1.7149679e-07
1.674848e-07
-6.423152e-07
6.5344453e-07
-1.5938563e-07
1.482563e-07
-6.638356e-07
6.7824257e-07
-1.3507369e-07
1.2066672e-07
-6.7464317e-07
6.8964696e-07
-1.0570809e-07
9.0704302e-08
-6.7758974e-07
6.9170321e-07
-7.6024389e-08
6.1910917e-08
-6.7552002e-07
6.8812169e-07
-4.8516785e-08
3.5915109e-08
-6.7060618e-07
6.8159013e-07
-2.4132031e-08
1.3148076e-08
-6.6417479e-07
6.7368132e-07
-2.9311187e-09
-6.5754104e-09
-6.5692213e-07
6.6521491e-07
1.545853e-08
-2.3751317e-08
-6.4861256e-07
6.55818e-07
3.149595e-08
-3.8701396e-08
-6.3847962e-07
6.4447521e-07
4.5338901e-08
-5.133449e-08
-6.2545462e-07
6.2968054e-07
5.6548108e-08
-6.0774025e-08
-6.085511e-07
6.0987771e-07
6.3726412e-08
-6.5053022e-08
-5.8763826e-07
5.844655e-07
6.4343121e-08
-6.1170362e-08
-5.6439115e-07
5.5521118e-07
5.5138271e-08
-4.5958299e-08
-5.4271052e-07
5.2712904e-07
3.3521844e-08
-1.7940365e-08
-5.2781279e-07
5.0740663e-07
-3.288749e-10
2.0735032e-08
-5.2410424e-07
5.0193939e-07
-4.2446822e-08
6.4611674e-08
-5.3421725e-07
5.1485331e-07
-8.5993549e-08
1.053575e-07
-5.55808e-07
5.4254959e-07
-1.2193058e-07
1.35189e-07
-5.8384252e-07
5.7822509e-07
-1.4474772e-07
1.5036514e-07
-6.12641e-07
6.1454092e-07
-1.5208028e-07
1.5018037e-07
-6.3707964e-07
6.4469814e-07
-1.4513409e-07
1.3751558e-07
-6.5440792e-07
6.6536925e-07
-1.2793529e-07
1.1697396e-07
-6.6431448e-07
6.7656212e-07
-1.0515216e-07
9.2904527e-08
-6.6797329e-07
6.8010816e-07
-8.0581398e-08
6.8446529e-08
-6.670318e-07
6.7827377e-07
-5.6693487e-08
4.5451514e-08
-6.6295612e-07
6.7296079e-07
-3.4805088e-08
2.4800417e-08
-6.5673573e-07
6.6539246e-07
-1.5462853e-08
6.8061193e-09
-6.4880507e-07
6.5606558e-07
1.1583735e-09
-8.418891e-09
-6.3918948e-07
6.449264e-07
1.4944849e-08
-2.0681772e-08
-6.2751006e-07
6.3137689e-07
2.5543821e-08
-2.9410647e-08
-6.1339805e-07
6.1476435e-07
3.2123724e-08
-3.3490026e-08
-5.9690184e-07
5.9487642e-07
3.3282612e-08
-3.1257196e-08
-5.7896888e-07
5.726022e-07
2.7166746e-08
-2.0800072e-08
-5.6189838e-07
5.5064909e-07
1.200522e-08
-7.5593482e-10
-5.4934792e-07
5.3382723e-07
-1.2801407e-08
2.8322102e-08
-5.4556545e-07
5.2799779e-07
-4.5234617e-08
6.2802283e-08
-5.5325541e-07
5.3700197e-07
-8.0171393e-08
9.6424842e-08
-5.7240356e-07
5.6107669e-07
-1.1064542e-07
1.2197229e-07
-5.9970032e-07
5.9600794e-07
-1.2971103e-07
1.3340342e-07
-6.2910195e-07
6.3332753e-07
-1.3299499e-07
1.287694e-07
-6.5496491e-07
6.6532059e-07
-1.2120132e-07
1.1084564e-07
-6.744842e-07
6.8877673e-07
-9.8264238e-08
8.3971702e-08
-6.8718527e-07
7.0363348e-07
-6.841699e-08
5.1968778e-08
1.7542392e-08
-6.9371998e-07
7.1111232e-07
-3.4934734e-08
-8.4255881e-09
-6.7169792e-07
6.8012351e-07
-6.6368214e-07
6.7133649e-07
1.5446278e-08
-2.310063e-08
-6.6317494e-07
6.7066825e-07
3.0683408e-08
-3.8176712e-08
-6.6251624e-07
6.6979812e-07
4.5565453e-08
-5.284734e-08
-6.6192177e-07
6.6902138e-07
6.0026574e-08
-6.7126179e-08
-6.6160667e-07
6.6867503e-07
7.4180849e-08
-8.1249203e-08
-6.6165008e-07
6.689955e-07
8.8406034e-08
-9.5751457e-08
-6.617555e-07
6.6984074e-07
1.0340039e-07
-1.1148563e-07
-6.6089001e-07
6.7023283e-07
1.2013862e-07
-1.2948144e-07
-6.5685116e-07
6.6773968e-07
1.3959288e-07
-1.504814e-07
-6.4594751e-07
6.5786195e-07
1.6202982e-07
-1.7394426e-07
-6.2322349e-07
6.3389586e-07
1.8567423e-07
-1.9634659e-07
-5.8403863e-07
5.8840134e-07
2.0469997e-07
-2.0906269e-07
-5.281674e-07
5.1870227e-07
2.0744804e-07
-1.9798291e-07
-4.6526515e-07
4.3565619e-07
1.7891132e-07
-1.4930236e-07
-4.1703921e-07
3.732602e-07
1.1178548e-07
-6.8006469e-08
-3.9491626e-07
3.4243101e-07
1.925308e-08
3.3232172e-08
-4.0602608e-07
3.4948692e-07
-8.9000803e-08
1.4553997e-07
-4.7064443e-07
4.4154505e-07
-1.9590202e-07
2.2500139e-07
-5.5128078e-07
5.4681205e-07
-2.4023347e-07
2.447022e-07
-6.1967508e-07
6.3092585e-07
-2.4037852e-07
2.2912775e-07
-6.6831089e-07
6.8804402e-07
-2.1272257e-07
1.9298944e-07
-6.9612468e-07
7.1821182e-07
-1.7148212e-07
1.4939498e-07
-7.0743919e-07
7.2839254e-07
-1.2759128e-07
1.0663792e-07
-7.0788567e-07
7.2627693e-07
-8.6880079e-08
6.8488819e-08
-7.0220483e-07
7.177784e-07
-5.152142e-08
3.5947857e-08
-6.9363811e-07
7.06696e-07
-2.1686979e-08
8.6290897e-09
-6.8403075e-07
6.951443e-07
3.3642577e-09
-1.4477799e-08
-6.7427934e-07
6.8405341e-07
2.4842367e-08
-3.4616445e-08
-6.6388305e-07
6.7281251e-07
4.391996e-08
-5.2849416e-08
-6.5152787e-07
6.5977426e-07
6.1449046e-08
-6.969543e-08
-6.3515069e-07
6.4219145e-07
7.7462587e-08
-8.4503355e-08
-6.1239395e-07
6.1661059e-07
9.0414837e-08
-9.4631478e-08
-5.8186856e-07
5.8038024e-07
9.6421513e-08
-9.4933192e-08
-5.4523219e-07
5.3465964e-07
8.927793e-08
-7.8705383e-08
-5.0887853e-07
4.8748695e-07
6.2731517e-08
-4.1339942e-08
-4.8281907e-07
4.5314715e-07
1.5210732e-08
1.446119e-08
-4.7464978e-07
4.4069758e-07
-4.6768999e-08
8.0721196e-08
-4.9131553e-07
4.6269749e-07
-1.1354635e-07
1.4216439e-07
-5.2679632e-07
5.0809709e-07
-1.6596054e-07
1.8465976e-07
-5.720244e-07
5.6528373e-07
-1.9770718e-07
2.0444786e-07
-6.1766412e-07
6.2257667e-07
-2.0502332e-07
2.0011078e-07
-6.5458158e-07
6.6744825e-07
-1.9066749e-07
1.7780082e-07
-6.7885205e-07
6.9544671e-07
-1.6259576e-07
1.460011e-07
-6.9110812e-07
7.0833524e-07
-1.2879404e-07
1.1156692e-07
-6.9413531e-07
7.1025921e-07
-9.4748925e-08
7.8625028e-08
-6.9100294e-07
7.053038e-07
-6.337015e-08
4.9069289e-08
-6.8413595e-07
6.9650119e-07
-3.5747154e-08
2.3381912e-08
-6.7501957e-07
6.8561706e-07
-1.19298e-08
1.3323097e-09
-6.6421059e-07
6.7325864e-07
8.4549372e-09
-1.7502982e-08
-6.5153112e-07
6.5908938e-07
2.581269e-08
-3.3370946e-08
-6.3610449e-07
6.4187182e-07
4.0100109e-08
-4.5867444e-08
-6.1687944e-07
6.2002265e-07
5.0465178e-08
-5.3608388e-08
-5.9322408e-07
5.9227805e-07
5.4928002e-08
-5.3981964e-08
-5.658001e-07
5.5880782e-07
5.026996e-08
-4.3277682e-08
-5.3765535e-07
5.228506e-07
3.2544015e-08
-1.7739257e-08
-5.1510438e-07
4.9249092e-07
-1.1193724e-09
2.3732833e-08
-5.0631534e-07
4.7947566e-07
-4.8998245e-08
7.5837917e-08
-5.1663795e-07
4.9101273e-07
-1.0282499e-07
1.2845022e-07
-5.4677072e-07
5.2857623e-07
-1.5115582e-07
1.6935032e-07
-5.9152593e-07
5.8619237e-07
-1.8166501e-07
1.8699858e-07
-6.3883054e-07
6.4621892e-07
-1.8549566e-07
1.7810728e-07
-6.7803551e-07
6.9379243e-07
-1.6597237e-07
1.5021545e-07
-7.0576113e-07
7.2595929e-07
-1.3183354e-07
1.1163539e-07
-7.2274929e-07
7.4487766e-07
-9.0246042e-08
6.8117666e-08
2.281858e-08
-7.310709e-07
7.5382915e-07
-4.5576828e-08