/*--------------------------------*- C++ -*----------------------------------*\
  =========                 |
  \\      /  F ield         | OpenFOAM: The Open Source CFD Toolbox
   \\    /   O peration     | Website:  https://openfoam.org
    \\  /    A nd           | Version:  7
     \\/     M anipulation  |
\*---------------------------------------------------------------------------*/
FoamFile
{
    version     2.0;
    format      ascii;
    class       volScalarField;
    location    "50/fluid";
    object      T;
}
// * * * * * * * * * * * * * * * * * * * * * * * * * * * * * * * * * * * * * //

dimensions      [0 0 0 1 0 0 0];

internalField   nonuniform List<scalar> 
17240
(
297
297
297
297
297
297
297
297
297
297
297
297
297
297
297
297
297
297
297
297
297
297
297
297
297
297
297
297
297
297
297
297
297
297
297
297
297
297
297
297
297
297
297
297
297
297
297
297
297
297
297
297
297
297
297
297
297
297
297
297
297
297
297
297
297
297
297
297
297
297
297
297
297
297
297
297
297
297
297
297
297
297
297
297
297
297
297
297
297
297
297
297
297
297
297
297
297
297
297
297
297
297
297
297
297
297
297
297
297
297
297
297
297
297
297
297
297
297
297
297
297
297
297
297
297
297
297
297
297
297
297
297
297
297
297
297
297
297
297
297
297
297
297
297
297
297
297
297.00001
297.00001
297
297
297
297
297
297
297
297
297
297
297
297
297
297
297
297
297
297
297
297
297
297
297
297
297
297
297
297
297
297
297
297
297
297
297
297
297
297
297
297
297
297
297
297
297
297
297
297
297
297
297
297
297
297
297
297
297
297
297
297
297
297
297
297.00001
297.00001
297.00001
297.00001
297.00001
297
297
297
297
297
297
297
297
297
297
297
297
297
297
297
297
297
297.00001
297.00001
297
297
297
297
297
297
297
297
297
297
297
297
297
297
297
297
297
297
297
297
297
297
297
297
297
297
296.99999
296.99999
297
297
297
297
297
297
297
297
297
297
297
297
297
297.00001
297.00001
297.00001
297.00001
297.00001
297.00001
297
297
297
297
296.99999
296.99999
296.99999
296.99999
296.99999
297
297
297
297
297
297
297
297.00001
297.00001
297.00001
297.00001
297
297
297
297
297
297
296.99999
296.99999
296.99999
297
297
297
297
297
297
297
297
297.00001
297.00001
297
297
297
297
297
296.99999
296.99999
296.99999
297
297
297
297
297
297
297
297
297
297
297
297
297
297.00001
297.00001
297.00001
297.00002
297.00001
297.00001
297
297
297
296.99999
296.99999
296.99999
296.99999
296.99999
296.99999
296.99999
297
297
297
297
297
297.00001
297.00001
297.00001
297.00001
297.00001
297.00001
297
297
297
296.99999
296.99999
296.99999
296.99999
296.99999
296.99999
297
297
297
297
297
297
297.00001
297.00001
297.00001
297.00001
297
297
297
296.99999
296.99999
296.99999
296.99999
297
297
297
297
297
297
297
297
297
297
297
297
297
297.00001
297.00001
297.00002
297.00002
297.00002
297.00001
297
297
296.99999
296.99999
296.99999
296.99999
296.99999
296.99999
296.99999
296.99999
296.99999
297
297
297
297
297.00001
297.00001
297.00001
297.00001
297.00001
297.00001
297
297
296.99999
296.99999
296.99999
296.99999
296.99999
296.99999
296.99999
296.99999
297
297
297
297
297
297.00001
297.00001
297.00001
297.00001
297.00001
297
297
296.99999
296.99999
296.99998
296.99998
296.99999
297
297
297
297
297
297
297
297
296.99999
296.99999
297
297
297.00002
297.00005
297.0001
297.00023
297.0008
297.00073
297.0003
297.00007
297
296.99999
296.99998
296.99999
296.99999
296.99999
296.99999
296.99999
296.99999
296.99999
297
297
297
297.00001
297.00001
297.00002
297.00002
297.00001
297.00001
297
297
296.99999
296.99999
296.99999
296.99999
296.99999
296.99999
296.99999
296.99999
296.99999
297
297
297
297.00001
297.00001
297.00001
297.00001
297.00001
297.00001
297
296.99999
296.99999
296.99998
296.99998
296.99998
296.99999
296.99999
297
297
297
297
297
297
296.99999
296.99999
297.00001
297.00015
297.00085
297.00321
297.00875
297.01899
297.04547
297.26292
297.20609
297.06515
297.01402
297.00208
297.00019
296.99999
296.99998
296.99998
296.99999
296.99999
296.99999
296.99999
296.99999
296.99999
297
297
297.00002
297.00006
297.00019
297.00113
297.00103
297.00048
297.00016
297.00004
296.99999
296.99998
296.99998
296.99998
296.99998
296.99999
296.99999
296.99999
296.99999
296.99999
297
297
297
297.00001
297.00002
297.00003
297.00002
297.00001
297
296.99999
296.99998
296.99997
296.99997
296.99997
296.99999
296.99999
296.99999
296.99999
297
297
297
297
297
297.00014
297.00172
297.01507
297.0918
297.3755
298.01382
298.84556
301.09328
301.8026
298.54916
297.39625
297.06815
297.00714
297.0004
296.99999
296.99998
296.99999
296.99999
296.99999
296.99999
296.99999
297
297.00008
297.00064
297.00321
297.01163
297.04006
297.34028
297.24354
297.08749
297.02684
297.00645
297.00111
297.0001
296.99998
296.99998
296.99998
296.99998
296.99999
296.99999
296.99999
296.99999
297
297.00002
297.00016
297.00074
297.00215
297.00357
297.00361
297.00267
297.00138
297.00044
297.00006
296.99997
296.99996
296.99995
296.99999
296.99999
296.99999
296.99999
296.99999
296.99999
297
297.00001
297.00019
297.00272
297.0306
297.24798
298.28904
301.05042
302.89345
299.14946
297.50251
297.06388
297.00408
297.00009
296.99998
296.99999
296.99999
296.99999
296.99999
297.00002
297.0006
297.00813
297.06622
297.33089
298.06778
299.71489
302.3905
299.13395
297.90335
297.2636
297.05041
297.0059
297.00037
296.99998
296.99997
296.99998
296.99999
296.99999
296.99999
297
297.00026
297.00334
297.02716
297.14532
297.48556
297.71322
297.71281
297.56576
297.30397
297.08644
297.01456
297.00139
297.00002
296.99994
296.99998
296.99999
296.99999
296.99999
296.99999
296.99999
297
297.0001
297.00125
297.01334
297.11927
297.77144
300.26806
302.44616
298.41357
297.20677
297.01411
297.00033
296.99998
296.99999
296.99999
297
297.00002
297.00054
297.01104
297.1399
297.9501
300.36663
302.08264
299.0273
297.50127
297.06753
297.00466
297.00012
296.99997
296.99998
296.99999
296.99999
297.00001
297.0005
297.00936
297.10392
297.69237
299.78333
301.25089
298.30833
297.25938
297.02925
297.00161
296.99996
296.99997
296.99998
296.99998
296.99998
296.99999
297
297.00005
297.00045
297.00366
297.02834
297.19757
298.06644
301.19501
304.74601
298.83325
297.30309
297.02121
297.00045
296.99998
296.99999
297
297.00001
297.00013
297.00248
297.04095
297.44489
299.56854
301.66703
298.28736
297.20417
297.01545
297.00043
296.99998
296.99998
296.99999
297
297.00021
297.00507
297.07501
297.61215
299.85856
307.60072
299.77289
297.70741
297.10952
297.00836
297.00016
296.99996
296.99997
296.99997
296.99997
296.99998
297.00001
297.0002
297.00126
297.00686
297.03688
297.21424
298.0681
301.29996
307.03573
298.92543
297.31519
297.02163
297.0005
296.99998
296.99999
297
297.00004
297.00036
297.00426
297.05368
297.52035
299.96517
303.53732
298.589
297.27732
297.02113
297.00056
296.99998
296.99999
297
297.00005
297.00093
297.01826
297.23218
298.52471
302.25985
302.04101
298.28565
297.22845
297.02131
297.00066
296.99995
296.99996
296.99996
296.99996
296.99999
297.00013
297.00076
297.00312
297.01056
297.03944
297.19148
297.88924
300.68155
307.71071
298.81609
297.28925
297.01974
297.00047
296.99997
296.99998
297.00001
297.00011
297.00064
297.00487
297.05207
297.45114
299.64011
315.08265
304.20135
298.56474
297.27057
297.02078
297.0006
296.99999
297
297.00002
297.00014
297.00189
297.02962
297.39358
299.91867
303.9893
298.6576
297.33374
297.0364
297.00142
296.99993
296.99994
296.99995
296.99999
297.00044
297.0036
297.01991
297.08253
297.23764
297.25819
297.24318
297.61693
299.55647
305.4568
316.58317
306.11985
298.58854
297.24463
297.01639
297.00038
296.99997
297.00005
297.00034
297.00093
297.00189
297.00611
297.04062
297.30109
298.83391
303.97279
310.78981
302.80054
298.38473
297.23613
297.01805
297.00054
296.99999
297
297.00005
297.00029
297.00232
297.03054
297.35966
299.70242
317.93801
305.61554
298.95354
297.41527
297.05004
297.00228
296.99992
296.99993
297.00001
297.00147
297.01765
297.12907
297.6263
299.21085
300.61413
298.39353
298.68813
301.78813
304.42479
314.10682
313.73611
311.46545
310.4457
310.48446
303.72366
298.30664
297.19425
297.01267
297.00061
297.00348
297.02458
297.10974
297.29709
297.40592
297.4051
297.32936
297.29996
297.97647
300.75329
303.34594
316.35728
312.25681
308.42766
301.42113
298.13521
297.18881
297.01412
297.00042
297.00003
297.00018
297.00056
297.00113
297.00331
297.02526
297.24612
298.90686
304.29455
313.07844
306.10686
299.18662
297.47224
297.06044
297.00308
296.99991
296.99994
297.00097
297.01832
297.17727
297.98323
300.20174
301.90008
299.66996
300.19001
301.71598
304.61251
306.91795
305.84974
305.52104
306.67083
301.98867
298.03731
297.14855
297.01038
297.0135
297.12028
297.6999
299.48121
300.96414
298.89895
299.3894
301.04213
304.66538
310.0604
305.93141
305.0425
305.03813
300.36848
297.88642
297.14185
297.01034
297.00203
297.01438
297.07582
297.22249
297.31542
297.32445
297.26821
297.2457
297.99494
300.89572
303.36341
313.67871
313.25844
311.41177
309.11229
305.40287
306.02293
299.34634
297.5027
297.06675
297.00372
296.99991
297.00009
297.00542
297.07914
297.60948
299.72225
302.95315
301.0501
301.03935
302.30351
304.30866
305.09449
304.90205
304.71788
300.77459
297.81292
297.11298
297.01611
297.08481
297.54266
299.3526
301.67099
299.81121
300.25642
302.30881
304.8127
304.50806
304.26701
303.1311
299.57222
297.67363
297.10336
297.0127
297.05485
297.36929
298.65718
300.46478
298.6957
299.3399
300.84058
303.85986
306.26049
305.10891
304.3371
303.85544
305.56101
299.37762
297.51067
297.06971
297.00419
296.99992
297.00047
297.01421
297.1624
297.97239
300.69794
303.89785
301.85118
301.80264
302.95225
304.02432
304.30581
303.45195
299.95217
297.64174
297.08949
297.03785
297.21492
297.99989
300.56311
305.78043
300.70994
300.18638
301.31226
303.01715
303.47359
303.50914
301.82893
298.98091
297.50878
297.07812
297.03815
297.2215
298.05752
300.86921
301.27163
299.71772
300.03518
301.45351
303.51887
304.47008
304.28488
303.59278
304.67079
299.31953
297.507
297.0716
297.00466
296.99994
297.0011
297.02548
297.24414
298.26264
301.64322
309.64311
303.13722
302.01189
302.45202
303.40375
303.99923
302.62118
299.3939
297.51706
297.07789
297.07772
297.38361
298.49073
302.11166
315.88706
302.11718
300.41033
300.93783
302.22531
302.92571
302.88273
300.90582
298.55124
297.3901
297.06946
297.10206
297.52554
299.18953
309.3058
301.32239
300.21946
300.64116
301.89713
302.99272
303.31339
303.23073
303.80245
299.20983
297.49508
297.07259
297.00513
296.99997
297.0019
297.03728
297.31607
298.49957
302.56333
320.09794
314.2952
304.79651
302.47731
302.34187
303.09486
303.78737
302.01238
298.99897
297.42759
297.07682
297.13321
297.5782
299.0418
304.08901
315.68966
302.90898
300.60781
300.83059
301.90497
302.68344
302.30695
300.23076
298.24299
297.30968
297.07702
297.19184
297.82254
300.02029
313.56811
303.68428
301.12862
300.62042
301.17794
302.03118
302.55486
302.75764
303.13664
299.08476
297.47893
297.07298
297.00561
297
297.0028
297.04863
297.37858
298.7088
303.42299
317.52025
319.13295
319.49785
315.06636
312.36299
305.84766
302.90284
302.36496
302.96231
303.59002
301.50052
298.70247
297.36335
297.08436
297.19989
297.79235
299.67877
306.05863
317.05315
320.4161
315.54577
302.9122
300.65075
300.82941
301.8267
302.56775
301.77135
299.72586
298.02359
297.25823
297.09634
297.29131
298.11146
300.96853
315.95001
312.58646
305.4446
302.25396
301.00099
300.98443
301.54054
302.08674
302.50763
302.62274
298.96068
297.46107
297.07298
297.00609
297.00006
297.00374
297.05926
297.43531
298.91921
304.08079
311.39106
310.49112
312.36829
312.36559
312.60867
311.93626
311.22131
310.97943
306.93647
303.14859
302.39792
302.92898
303.32263
301.02955
298.4678
297.31719
297.09822
297.27213
298.0181
300.36401
306.33149
307.53661
315.4748
319.63599
316.87373
315.1751
309.17962
302.43431
300.6693
300.91421
301.87229
302.38081
301.28899
299.34675
297.86956
297.22758
297.12124
297.38644
298.3749
301.68783
309.69803
317.05008
313.80045
309.6517
307.34551
303.479
301.52134
301.03747
301.33045
301.82277
302.35592
302.1835
298.83939
297.44243
297.0727
297.00657
297.00012
297.00467
297.06907
297.48961
299.1675
304.68885
308.48175
307.38196
306.92354
306.49432
306.57239
306.75186
307.03987
308.31986
307.06631
303.13054
302.43251
302.96352
302.94943
300.58363
298.27597
297.28434
297.11576
297.34225
298.23434
301.01054
305.63396
304.66157
305.80857
310.88653
310.56773
309.67317
309.17451
305.66524
301.83315
300.71437
301.07827
301.96137
302.12722
300.87728
299.06782
297.76499
297.21126
297.14523
297.46355
298.58932
302.19197
310.67196
312.47073
312.57197
310.93766
309.58644
306.51711
305.58208
305.71065
304.35726
301.97387
301.15188
301.25798
301.68593
302.31007
301.77259
298.71859
297.42314
297.07218
297.00706
297.00021
297.00555
297.07749
297.53923
299.46815
305.41255
307.72682
307.50289
306.86967
306.29782
306.58312
306.91028
307.00334
307.85639
305.9619
302.9991
302.50388
302.97953
302.49487
300.166
298.11735
297.26152
297.13414
297.40043
298.39869
301.49561
304.73537
304.10425
304.65115
305.60015
306.64428
307.03108
306.06791
303.50822
301.37074
300.82259
301.29274
302.00239
301.85671
300.55161
298.87431
297.69958
297.20445
297.16262
297.50846
298.7238
302.89533
308.53161
306.96185
305.78249
305.50996
305.392
305.41668
305.02654
305.16277
304.54573
302.13845
301.21831
301.24073
301.6296
302.2963
301.37276
298.59746
297.40326
297.07144
297.00754
297.00031
297.00629
297.08343
297.57257
299.73376
306.07611
308.15679
308.38291
307.21613
306.21643
306.52731
306.98967
307.11853
306.86289
304.80783
302.85168
302.59973
302.88902
301.99771
299.78582
297.9866
297.24621
297.15077
297.43824
298.46419
301.64835
304.12038
303.61992
304.15202
304.94796
305.27015
304.97116
303.82933
302.21994
301.13102
301.00249
301.5043
301.97057
301.61864
300.32647
298.75939
297.66733
297.20412
297.17034
297.51747
298.72152
302.94748
307.52865
306.14122
305.72629
305.55631
305.33494
305.43746
304.83707
304.9944
304.17875
302.09471
301.23278
301.24495
301.66134
302.21239
300.98543
298.47777
297.38309
297.07052
297.00802
297.00043
297.00689
297.0867
297.58331
299.8023
306.51542
309.38509
310.09429
308.21169
306.12271
306.01556
306.32666
306.28227
305.56882
303.93779
302.75427
302.66654
302.66672
301.4984
299.45092
297.87998
297.23643
297.16404
297.4539
298.47362
301.4668
303.8108
303.09791
303.3501
303.74513
303.75067
303.29628
302.43414
301.54781
301.1032
301.22992
301.66113
301.89938
301.4592
300.22133
298.72478
297.66623
297.20907
297.17353
297.50817
298.63022
302.20082
306.58316
306.31719
306.03561
305.6156
305.30477
305.51091
304.7317
304.57032
303.62685
301.9613
301.23929
301.2808
301.74528
302.0546
300.61975
298.363
297.36325
297.06951
297.0085
297.00056
297.00747
297.08918
297.58497
299.75345
306.17925
310.61975
312.30736
310.5157
306.66198
305.48942
305.36417
305.24471
304.52799
303.38567
302.70499
302.64746
302.34716
301.02958
299.16504
297.79425
297.2306
297.17365
297.46115
298.44362
301.13899
303.52576
302.77158
302.70105
302.81281
302.68568
302.25529
301.70573
301.30776
301.24089
301.46516
301.75231
301.83912
301.41504
300.25156
298.79059
297.71163
297.22732
297.17563
297.4881
298.50198
301.29111
304.57286
305.42612
305.34972
305.08655
305.19616
305.65248
304.86555
304.09668
303.13007
301.80994
301.24774
301.35786
301.80928
301.84036
300.28632
298.25711
297.34452
297.06849
297.00898
297.00071
297.00807
297.09132
297.58314
299.67293
305.5392
310.28997
313.14014
314.62969
309.99626
307.08459
305.52378
304.43299
303.84706
303.06852
302.66168
302.5305
301.98287
300.61192
298.92783
297.72654
297.22757
297.18022
297.46519
298.38981
300.77355
303.13451
302.93005
302.32427
302.28502
302.08471
301.75658
301.50447
301.49435
301.76483
302.19944
302.34314
301.90997
301.46321
300.47563
299.03128
297.83506
297.26493
297.17858
297.47024
298.41363
300.63876
302.63904
303.44678
304.16083
305.53256
306.71852
307.13905
306.77009
303.75126
302.7461
301.67661
301.27186
301.4532
301.82396
301.59652
299.99414
298.16375
297.32777
297.0676
297.00946
297.00086
297.00868
297.09374
297.58535
299.62995
305.11877
309.6283
311.63296
317.08646
313.27352
304.0891
303.4501
302.88522
302.59156
302.34105
301.61745
300.2549
298.73638
297.67443
297.22659
297.18462
297.46426
298.32608
300.43044
302.7121
302.97709
302.21826
302.07137
301.93895
301.97787
302.55404
303.85681
306.01931
307.24359
302.68132
301.22379
299.55062
298.07034
297.32794
297.18414
297.47042
298.56612
301.3472
319.37831
313.19901
307.97245
303.49611
302.4476
301.57347
301.31582
301.53726
301.78918
301.35118
299.7498
298.086
297.31387
297.067
297.00994
297.00102
297.00934
297.09689
297.60007
299.72495
305.3343
310.20486
307.04521
303.23363
302.76166
302.48628
302.1122
301.27795
299.96045
298.58714
297.63632
297.2273
297.18852
297.46007
298.26142
300.13125
302.30456
302.91552
302.34155
302.06862
302.19709
303.06379
305.43338
304.56022
300.56744
298.4151
297.41536
297.19289
297.52027
299.6477
316.08235
306.7869
303.22405
302.19753
301.50361
301.37121
301.59437
301.72058
301.12938
299.55827
298.02658
297.30374
297.06686
297.01045
297.00116
297.01005
297.10176
297.638
300.02673
306.40306
309.48343
303.10316
302.65313
302.34722
301.86702
300.9778
299.72778
298.47793
297.6117
297.22963
297.19246
297.45386
298.20125
299.88037
301.93135
302.78521
302.48965
302.10413
302.35
303.55841
306.99697
306.85934
301.15074
298.70295
297.50533
297.20432
297.54325
300.12632
316.39012
305.67173
302.91413
301.98167
301.46529
301.42633
301.62324
301.64016
300.9527
299.42456
297.98837
297.29836
297.06738
297.01099
297.00131
297.01078
297.10689
297.67443
300.22551
306.84507
310.23867
302.98207
302.52854
302.17094
301.61655
300.72437
299.55856
298.41012
297.60179
297.2338
297.19605
297.44663
298.14984
299.68009
301.60495
302.61011
302.57286
302.19636
302.32948
303.42936
306.74929
309.55621
301.58776
298.91729
297.58332
297.21693
297.55578
300.52739
314.79184
304.67289
302.57329
301.7996
301.45279
301.47306
301.63128
301.57167
300.84127
299.35597
297.97516
297.29895
297.06879
297.01158
297.00145
297.01149
297.11076
297.6967
300.33099
307.07599
321.93871
309.65098
302.81528
302.35353
301.94512
301.36678
300.52854
299.46349
298.39176
297.60864
297.24214
297.19923
297.43952
298.11252
299.53937
301.34671
302.41646
302.5855
302.33263
302.29881
303.06847
305.62924
312.11243
301.92731
299.06449
297.643
297.22924
297.56829
300.83909
312.53869
303.74621
302.21792
301.65563
301.45875
301.50773
301.6294
301.53812
300.81079
299.36329
297.99679
297.30933
297.07199
297.01234
297.00159
297.01218
297.11381
297.70749
300.34444
307.07557
318.18281
318.37267
306.97655
302.54422
302.07764
301.65358
301.13072
300.41648
299.4525
298.43503
297.65585
297.26324
297.20259
297.43398
298.0975
299.48038
301.19921
302.24798
302.53348
302.44357
302.33676
302.70048
304.34237
308.91555
320.52739
313.35759
302.18397
299.15097
297.68217
297.24021
297.58103
301.01867
318.12333
319.85321
308.66726
302.86584
301.88289
301.55881
301.47788
301.52945
301.62563
301.53503
300.86605
299.47866
298.08378
297.34077
297.07948
297.01359
297.00174
297.01282
297.11595
297.70975
300.30365
306.88575
315.3817
314.28566
316.61111
318.7305
311.36783
306.91154
304.06002
302.19347
301.84866
301.51306
301.00128
300.40921
299.57713
298.61631
297.77766
297.30669
297.20754
297.43223
298.138
299.56004
301.21061
302.1843
302.61599
302.67894
302.52521
302.542
303.24729
305.65976
308.22518
320.23766
315.76452
311.33632
312.75152
302.31796
299.17815
297.70012
297.2491
297.59443
301.07568
313.14231
315.019
316.55206
318.6555
311.3038
307.92709
304.77582
302.33364
302.11005
302.1452
302.09297
301.64096
301.62781
301.56078
301.0189
299.72683
298.25958
297.4026
297.09305
297.01551
297.00189
297.01342
297.11713
297.7034
300.20991
306.48845
313.32071
309.73115
310.77369
310.52992
306.88494
304.8101
303.52557
304.18426
310.15764
301.95826
300.37536
299.09499
298.0366
297.39171
297.21703
297.45145
298.29586
299.91363
301.64117
303.80998
308.38999
305.26885
304.06674
303.50337
304.04483
305.65424
308.65478
315.17933
310.77273
309.56527
310.93451
302.27726
299.16208
297.70575
297.25588
297.61077
301.0672
310.25979
309.70234
310.88973
310.66774
307.38766
305.58319
304.43722
305.70382
308.92819
303.26988
302.11117
301.32396
300.10448
298.54084
297.5065
297.11523
297.01835
297.00205
297.01398
297.11743
297.68967
300.0748
305.94182
311.88797
308.98469
308.89016
307.57269
305.46897
304.48531
304.89058
305.71404
301.17038
298.69227
297.55496
297.23538
297.50242
298.64551
301.01244
304.67406
309.65271
306.31979
305.45223
306.59395
309.12074
310.14494
309.38426
309.08737
302.10248
299.11018
297.70213
297.26309
297.63259
301.06359
308.38332
309.4136
309.41604
307.94677
306.18337
305.6466
306.6315
307.06313
302.69484
300.66896
298.91715
297.65923
297.1486
297.02239
297.00223
297.0145
297.11701
297.67064
299.91704
305.35365
310.80037
308.16122
307.58298
306.29639
305.07617
305.0275
307.47153
304.77691
299.80683
297.80611
297.26446
297.57128
299.16276
303.07287
320.92926
310.67788
307.04491
306.39898
307.41416
308.49746
308.61859
307.73425
301.84966
299.03329
297.69114
297.27165
297.6605
301.12894
307.79365
308.90191
308.22108
307.00718
306.48997
307.72188
312.71924
304.5687
301.43413
299.3472
297.85083
297.19361
297.02777
297.00241
297.01498
297.11605
297.64811
299.75001
304.77847
309.97174
307.72819
306.86766
305.78615
305.2084
306.25076
311.71217
307.17361
300.41215
298.01989
297.29774
297.61816
299.45772
303.89664
320.09673
312.15316
308.48797
306.84092
307.00597
307.76632
308.10933
306.73705
301.56788
298.94329
297.67585
297.28166
297.70449
301.30315
307.9109
308.43983
307.63658
306.93496
307.4901
311.33533
325.96831
308.01361
302.46296
299.78798
298.05457
297.24656
297.03431
297.00261
297.01543
297.11463
297.62311
299.57927
304.22168
309.25216
307.49252
306.50878
305.62685
305.52527
307.37449
313.18202
309.80467
300.86305
298.19056
297.33176
297.63693
299.61893
304.49521
319.09127
312.03473
309.03057
307.14726
306.95539
307.49536
307.87726
305.89574
301.27927
298.84896
297.65944
297.29256
297.74824
301.50781
307.92466
308.14759
307.42962
307.21135
308.86964
315.35392
322.88773
327.40085
310.63484
303.17544
300.14676
298.23772
297.30048
297.04149
297.00282
297.01585
297.11282
297.59616
299.40646
303.67475
308.5524
307.41724
306.34793
305.60133
305.79045
308.25856
316.13937
321.36471
324.38525
311.61371
301.26155
298.33681
297.36665
297.64279
299.69088
304.91516
318.27951
310.81232
308.90773
307.18862
306.96277
307.41272
307.58589
305.12121
300.99453
298.75638
297.64446
297.30307
297.77728
301.53439
307.86679
307.99454
307.38485
307.43095
309.61766
316.66353
321.1074
322.04852
311.64129
303.77459
300.43447
298.38897
297.34964
297.04868
297.00304
297.01625
297.11065
297.56763
299.23293
303.1339
307.8303
307.55553
306.30201
305.61156
305.88661
308.84543
314.86426
315.88848
319.14414
324.48982
318.86543
311.88447
301.66676
298.47806
297.40372
297.64619
299.69266
305.11783
321.77419
323.51769
324.10665
318.20218
309.85372
308.44195
307.14913
306.99459
307.40512
307.1143
304.39863
300.72262
298.66994
297.63245
297.31211
297.80123
301.40784
307.67895
307.93115
307.38987
307.46166
309.45918
314.69142
319.511
323.1538
324.71646
327.90044
323.01663
314.58309
311.46322
304.24206
300.65875
298.50516
297.39032
297.05528
297.00327
297.01661
297.10819
297.53809
299.06125
302.60348
307.07744
307.66083
306.35772
305.64619
305.88218
308.55506
313.03843
312.57379
313.32432
315.82356
315.9983
313.85468
313.45647
311.48418
302.13329
298.62887
297.44362
297.64865
299.67326
305.13707
316.36898
314.66353
316.91328
319.7066
321.3393
319.14063
310.87911
309.03434
307.95253
307.09873
307.06237
307.32905
306.52631
303.74039
300.47293
298.59296
297.62406
297.31984
297.81296
301.15907
307.09168
307.9134
307.42296
307.44845
308.86787
312.00543
314.16592
315.95287
318.19184
322.86383
322.75953
320.43679
313.5725
312.06506
311.07966
304.6617
300.82688
298.58474
297.42005
297.06081
297.00351
297.01694
297.10553
297.50834
298.89519
302.09387
306.30862
307.61231
306.52422
305.72741
305.84313
307.92032
311.53046
311.03965
310.55563
310.25393
310.51413
311.154
311.46636
311.12576
302.7588
298.7923
297.48457
297.65216
299.64905
305.08501
313.12366
311.84453
311.36222
311.63964
312.35298
311.54819
309.31812
308.37333
307.57611
307.0783
307.11552
307.08344
305.8945
303.16599
300.25507
298.52805
297.6193
297.32778
297.81443
300.84453
306.27921
307.82447
307.49605
307.43296
308.24493
309.95876
311.44114
312.21736
312.59005
313.13024
313.21542
312.5494
311.57419
311.16738
310.85719
305.06744
300.9204
298.62295
297.43687
297.06486
297.00375
297.01726
297.1028
297.47939
298.73912
301.61764
305.54997
307.39352
306.73361
305.86831
305.81284
307.27111
310.02119
310.8378
310.69048
310.09654
310.4515
311.44881
311.66847
311.10609
303.50168
298.93672
297.52111
297.65819
299.63064
305.08156
311.07763
310.47834
310.66152
310.96837
310.79649
309.60414
308.52602
307.87009
307.33038
307.07392
307.0582
306.69979
305.29118
302.69607
300.079
298.47766
297.6178
297.33603
297.81103
300.53188
305.41488
307.51269
307.56101
307.45374
307.80436
308.63404
309.53497
310.23095
310.68841
310.94452
311.00513
310.81432
310.40423
310.24372
310.51017
305.17586
300.90592
298.62249
297.44305
297.06778
297.004
297.01757
297.10017
297.45228
298.59714
301.18636
304.83003
307.03516
306.88471
306.06495
305.82591
306.76771
308.7616
309.90134
310.04115
309.70044
310.92537
312.42154
312.58312
311.48516
303.94805
299.00207
297.54723
297.66647
299.61083
305.26936
310.05111
309.9421
310.04348
309.95938
309.43916
308.62975
307.97919
307.50914
307.17095
307.01232
306.84702
306.26378
304.78717
302.35469
299.95653
298.44468
297.61903
297.34455
297.81072
300.28644
304.66323
307.00832
307.48344
307.48072
307.58102
307.89799
308.3478
308.82906
309.26558
309.5909
309.74258
309.70045
309.48216
309.45789
310.02104
304.8952
300.80943
298.5937
297.44338
297.07041
297.00426
297.01789
297.09782
297.42808
298.47269
300.80883
304.17378
306.58993
306.92251
306.27325
305.89483
306.44101
307.86381
308.95278
309.20397
309.3798
312.49881
313.60322
313.4004
311.56494
303.80411
299.01571
297.56273
297.67492
299.56664
305.12662
309.45824
309.24694
309.22351
309.02232
308.57024
308.02843
307.58051
307.24062
307.00058
306.80989
306.51992
305.87622
304.46185
302.17757
299.90392
298.43325
297.62257
297.35334
297.8234
300.17298
304.19248
306.51453
307.19838
307.36889
307.44412
307.54953
307.72952
308.00285
308.33783
308.65783
308.86832
308.90973
308.83794
309.05625
309.21361
304.40996
300.64574
298.54151
297.43864
297.07276
297.00451
297.01824
297.09598
297.4078
298.36852
300.49085
303.59965
306.11316
306.84739
306.44045
306.00316
306.26371
307.29024
308.24318
308.56283
309.91487
315.20105
313.48361
313.08174
310.54695
303.476
299.00709
297.57661
297.68102
299.48291
304.62839
309.05324
308.67765
308.59825
308.39207
308.0273
307.62502
307.28606
307.03291
306.85802
306.68674
306.2911
305.66544
304.3943
302.22359
299.96018
298.45745
297.6305
297.36542
297.8822
300.30114
304.18745
306.59025
307.35067
307.79397
308.11096
308.2992
308.26498
308.10969
308.10122
308.2441
308.41369
308.48551
308.53023
309.03437
308.24123
303.8407
300.44325
298.47467
297.43032
297.07489
297.00477
297.01866
297.09487
297.39246
298.28698
300.2362
303.11964
305.65121
306.68979
306.54068
306.1198
306.18904
306.95906
307.80663
308.70588
312.75488
317.4333
312.50201
312.09805
309.48164
303.1626
299.00264
297.59252
297.68343
299.36556
303.97762
308.54815
308.34796
308.19517
308.00732
307.7154
307.45656
307.42297
307.91089
309.43337
316.70583
306.49725
304.88317
302.65504
300.22528
298.55276
297.65293
297.38676
298.07769
300.90412
305.19884
317.04579
312.49452
309.9586
308.85368
308.53188
308.4794
308.60788
308.78129
307.27007
303.27943
300.23086
298.40275
297.42025
297.07686
297.00503
297.01917
297.09478
297.38327
298.23083
300.04868
302.74197
305.23762
306.48627
306.57571
306.22181
306.172
306.8001
308.11892
320.46366
313.01747
311.3265
308.87495
303.03036
299.02363
297.61968
297.68293
299.23428
303.32178
307.83109
308.24745
307.98517
307.81985
307.63567
307.68588
308.44213
310.44846
308.28249
303.71785
300.75624
298.73979
297.69334
297.42548
298.49992
302.28038
307.8763
324.44608
314.57149
311.20807
309.43459
308.73811
308.53756
308.61465
308.33304
306.38935
302.77741
300.03102
298.33402
297.4102
297.07879
297.00529
297.01982
297.0961
297.38186
298.20431
299.93518
302.4759
304.89576
306.26601
306.55819
306.30264
306.18205
306.92455
310.99903
315.9722
309.22794
303.31655
299.12041
297.66095
297.68244
299.11266
302.75715
307.07711
308.14497
307.91935
307.76389
307.7041
308.18197
310.23535
311.8469
305.35533
301.56992
299.02847
297.75511
297.47897
299.1044
304.65155
317.02784
311.3487
309.48773
308.7373
308.53481
308.46989
307.80046
305.63994
302.35912
299.85934
298.2749
297.40172
297.08077
297.0056
297.02082
297.09994
297.39186
298.21309
299.91056
302.33988
304.64667
306.04817
306.49646
306.36429
306.20864
307.55826
311.87724
304.0505
299.29439
297.70608
297.68597
299.02405
302.33659
306.41916
307.92487
307.94923
307.76409
307.73467
308.30144
310.81207
308.47682
302.62653
299.37399
297.83399
297.51583
299.41883
305.46078
317.90246
310.87661
309.2554
308.63772
308.46147
308.21244
307.2682
305.04322
302.03848
299.72736
298.23048
297.3962
297.08293
297.00597
297.02279
297.11015
297.42871
298.29641
299.99908
302.3388
304.52121
305.84878
306.38757
306.39979
306.25323
307.3779
313.40536
304.31726
299.38391
297.73087
297.69701
298.99079
302.09658
305.94616
307.66971
307.93507
307.8098
307.74739
308.18728
310.39291
310.2239
303.13728
299.63507
297.9129
297.53845
299.55137
305.95476
325.74161
315.14962
310.11537
308.91391
308.49416
308.29533
307.89395
306.80996
304.62341
301.83061
299.64572
298.20525
297.39487
297.08536
297.00646
297.0262
297.13056
297.51077
298.50801
300.31313
302.53834
304.50707
305.69534
306.22094
306.37456
306.30617
307.01003
312.78779
314.71773
304.28282
299.36593
297.73859
297.73073
299.03928
302.06655
305.73654
307.47026
307.86899
307.85199
307.78119
308.00836
309.4694
313.88357
323.8411
311.41158
303.45747
299.82616
297.98665
297.56187
299.5552