/*--------------------------------*- C++ -*----------------------------------*\
  =========                 |
  \\      /  F ield         | OpenFOAM: The Open Source CFD Toolbox
   \\    /   O peration     | Website:  https://openfoam.org
    \\  /    A nd           | Version:  7
     \\/     M anipulation  |
\*---------------------------------------------------------------------------*/
FoamFile
{
    version     2.0;
    format      ascii;
    class       volVectorField;
    location    "50/fluid";
    object      U;
}
// * * * * * * * * * * * * * * * * * * * * * * * * * * * * * * * * * * * * * //

dimensions      [0 1 -1 0 0 0 0];

internalField   nonuniform List<vector> 
17240
(
(-0.00078246015 1.0013445 0)
(-0.0019193404 1.0002724 0)
(-0.0034453402 1.000271 0)
(-0.0049579927 1.0002677 0)
(-0.0064470901 1.0002622 0)
(-0.0078977516 1.0002533 0)
(-0.0092845437 1.0002384 0)
(-0.010562707 1.0002133 0)
(-0.011658344 1.000172 0)
(-0.012459313 1.0001073 0)
(-0.01281368 1.0000129 0)
(-0.012543263 0.99988615 0)
(-0.011474579 0.99973255 0)
(-0.0094974237 0.99956882 0)
(-0.006628424 0.99942254 0)
(-0.0030585268 0.99932591 0)
(0.00084661704 0.99930505 0)
(0.0046577814 0.99936335 0)
(0.0079086595 0.99950057 0)
(0.01022536 0.99968787 0)
(0.011426944 0.99988797 0)
(0.011536404 1.0000683 0)
(0.010729656 1.000209 0)
(0.0092558436 1.0003037 0)
(0.0073721084 1.0003553 0)
(0.0053030587 1.0003713 0)
(0.0032262771 1.0003601 0)
(0.00127586 1.0003281 0)
(-0.00044454598 1.0002796 0)
(-0.0018509238 1.0002166 0)
(-0.0028561602 1.0001372 0)
(-0.0033687153 1.0000419 0)
(-0.003302972 0.99993282 0)
(-0.0025968058 0.99981663 0)
(-0.0012419185 0.99970558 0)
(0.00068777764 0.99961551 0)
(0.0030357347 0.99956123 0)
(0.0055562763 0.99955677 0)
(0.0079510348 0.99960616 0)
(0.0099291602 0.99970228 0)
(0.011267896 0.99982862 0)
(0.011853266 0.99996424 0)
(0.011689468 1.0000899 0)
(0.010875413 1.0001916 0)
(0.0095707581 1.0002625 0)
(0.0079549833 1.000302 0)
(0.0062001335 1.0003128 0)
(0.0044562857 1.0002994 0)
(0.0028486715 1.0002657 0)
(0.0014817261 1.000215 0)
(0.00044508839 1.0001493 0)
(-0.00018284962 1.0000706 0)
(-0.00033612926 0.99998192 0)
(2.6533612e-05 0.99988905 0)
(0.00090623036 0.99980087 0)
(0.0022437016 0.99972965 0)
(0.0039050035 0.99968909 0)
(0.0056822761 0.99969081 0)
(0.0073171826 0.99974015 0)
(0.0085456357 0.99983323 0)
(0.0091515693 0.99995707 0)
(0.009011056 1.0000933 0)
(0.0081076662 1.0002231 0)
(0.0065241688 1.0003314 0)
(0.0044112861 1.000409 0)
(0.0019626979 1.0004503 0)
(-0.0015658779 1.0060349 0)
(-0.0058298572 1.0032704 0)
(-0.010470522 1.0032519 0)
(-0.015070506 1.0032142 0)
(-0.019603664 1.0031521 0)
(-0.024029996 1.0030502 0)
(-0.028278371 1.0028776 0)
(-0.032219531 1.0025827 0)
(-0.035633226 1.0020922 0)
(-0.038177164 1.0013177 0)
(-0.039376683 1.0001782 0)
(-0.038659949 0.99864006 0)
(-0.035460177 0.99676845 0)
(-0.029396118 0.99476864 0)
(-0.020487772 0.99297842 0)
(-0.009313759 0.99179155 0)
(0.0029799599 0.99151818 0)
(0.014994321 0.99222412 0)
(0.025231472 0.99389864 0)
(0.032483421 0.9961928 0)
(0.036179077 0.99864614 0)
(0.036415572 1.0008549 0)
(0.033776152 1.0025749 0)
(0.029071336 1.0037256 0)
(0.023122629 1.0043457 0)
(0.016635458 1.0045309 0)
(0.01015725 1.0043848 0)
(0.0040929085 1.0039904 0)
(-0.0012503148 1.0033986 0)
(-0.0056205188 1.002633 0)
(-0.0087597465 1.0016734 0)
(-0.010386339 1.000519 0)
(-0.01022634 0.99919594 0)
(-0.0080716931 0.99778281 0)
(-0.003874889 0.9964274 0)
(0.0021534612 0.99532134 0)
(0.0095245235 0.99465159 0)
(0.017461531 0.99459039 0)
(0.025010566 0.99519021 0)
(0.031238695 0.99636571 0)
(0.035432893 0.99791475 0)
(0.03723254 0.99958023 0)
(0.036657103 1.0011205 0)
(0.034035561 1.0023651 0)
(0.029883262 1.0032298 0)
(0.02477482 1.003706 0)
(0.019253232 1.0038315 0)
(0.013785149 1.0036613 0)
(0.0087544094 1.0032469 0)
(0.0044780064 1.0026267 0)
(0.0012281059 1.0018268 0)
(-0.0007539669 1.0008701 0)
(-0.0012609405 0.99979151 0)
(-0.00015318357 0.99865849 0)
(0.0025846894 0.99758014 0)
(0.0067805351 0.99670521 0)
(0.012023265 0.99620229 0)
(0.017659822 0.99621576 0)
(0.022867595 0.99681365 0)
(0.026798785 0.99795099 0)
(0.028756837 0.99947007 0)
(0.028341595 1.0011412 0)
(0.025507023 1.0027319 0)
(0.020522153 1.0040585 0)
(0.013870263 1.005009 0)
(0.0061455104 1.0055336 0)
(-0.0023562403 1.0138425 0)
(-0.0097461525 1.0094981 0)
(-0.01750624 1.009442 0)
(-0.025203417 1.0093377 0)
(-0.03280425 1.0091719 0)
(-0.040260468 1.0089033 0)
(-0.047479764 1.0084454 0)
(-0.054277516 1.0076482 0)
(-0.060312633 1.0062905 0)
(-0.065019054 1.0040968 0)
(-0.067564952 1.0008015 0)
(-0.066890519 0.99627179 0)
(-0.061880259 0.99067198 0)
(-0.051701003 0.9846037 0)
(-0.036241085 0.97910007 0)
(-0.01645441 0.97539001 0)
(0.0055729962 0.97446725 0)
(0.027177249 0.9765856 0)
(0.04551487 0.98170735 0)
(0.05827511 0.98872663 0)
(0.064450656 0.99618344 0)
(0.064349059 1.0028285 0)
(0.059169624 1.0079306 0)
(0.050473964 1.01128 0)
(0.039773171 1.0130284 0)
(0.028308323 1.0134911 0)
(0.016997627 1.0129963 0)
(0.0064860554 1.0117992 0)
(-0.0027590427 1.0100517 0)
(-0.010349734 1.0078132 0)
(-0.015880813 1.0050154 0)
(-0.018867176 1.0016335 0)
(-0.018796492 0.9977215 0)
(-0.015233552 0.99349723 0)
(-0.0080028752 0.98939574 0)
(0.0025986227 0.98601094 0)
(0.015720212 0.98393513 0)
(0.029961907 0.9837122 0)
(0.043543182 0.98551754 0)
(0.054713384 0.98908957 0)
(0.062146875 0.99379906 0)
(0.065198367 0.99884685 0)
(0.063948537 1.0034881 0)
(0.05905675 1.0072032 0)
(0.051507048 1.0097495 0)
(0.042359722 1.0111194 0)
(0.032581967 1.011445 0)
(0.022974793 1.0109045 0)
(0.014174573 1.0096585 0)
(0.0066954081 1.0078209 0)
(0.00098133684 1.0054624 0)
(-0.0025600831 1.0026386 0)
(-0.0035523796 0.99943657 0)
(-0.0017083772 0.99604489 0)
(0.0030605021 0.99278239 0)
(0.010511698 0.99009848 0)
(0.019958867 0.98851682 0)
(0.030238897 0.98849709 0)
(0.039835745 0.99026689 0)
(0.047156684 0.99369957 0)
(0.050883875 0.99830862 0)
(0.050271309 1.0033785 0)
(0.045262225 1.0081845 0)
(0.036391782 1.0121696 0)
(0.024569227 1.0150103 0)
(0.010865933 1.0165801 0)
(-0.0031644375 1.0248242 0)
(-0.013713463 1.0188558 0)
(-0.02462996 1.0187435 0)
(-0.035462335 1.0185501 0)
(-0.046182964 1.0182605 0)
(-0.056762533 1.0178085 0)
(-0.06713146 1.0170365 0)
(-0.077107665 1.0156511 0)
(-0.086288409 1.0131932 0)
(-0.093916263 1.0090588 0)
(-0.098763787 1.0026188 0)
(-0.099125904 0.99347771 0)
(-0.093041077 0.98185579 0)
(-0.078842378 0.96894987 0)
(-0.05597466 0.95698789 0)
(-0.025710225 0.94871872 0)
(0.0086173414 0.9464534 0)
(0.042489905 0.95087261 0)
(0.07105349 0.96194298 0)
(0.090303473 0.97710209 0)
(0.098764073 0.99298814 0)
(0.097302988 1.006869 0)
(0.08818428 1.0172605 0)
(0.074086666 1.0238524 0)
(0.057424997 1.0270935 0)
(0.040048583 1.027738 0)
(0.023222138 1.0265218 0)
(0.0077568716 1.0239899 0)
(-0.0058129942 1.020461 0)
(-0.017041612 1.0160076 0)
(-0.025416116 1.0104607 0)
(-0.030233487 1.0036951 0)
(-0.030650267 0.99574055 0)
(-0.025839636 0.98698335 0)
(-0.015308342 0.97830932 0)
(0.00068250793 0.97101416 0)
(0.020893323 0.96644048 0)
(0.043110839 0.96583438 0)
(0.064383951 0.96962501 0)
(0.081786277 0.97724037 0)
(0.093144104 0.9872781 0)
(0.097467764 0.99797114 0)
(0.095008757 1.0076942 0)
(0.08696956 1.0153476 0)
(0.075026746 1.0204681 0)
(0.060892175 1.0231089 0)
(0.046042497 1.0236105 0)
(0.031629031 1.0223881 0)
(0.018513739 1.0197937 0)
(0.007366205 1.0160578 0)
(-0.0012295142 1.0112985 0)
(-0.0066948424 1.0055887 0)
(-0.0084416345 0.99904872 0)
(-0.0059358081 0.99201666 0)
(0.0011043551 0.98512753 0)
(0.012475296 0.97932665 0)
(0.02724548 0.97576868 0)
(0.043628565 0.97551125 0)
(0.059163465 0.97911551 0)
(0.071186345 0.98634714 0)
(0.077469615 0.99614106 0)
(0.076786999 1.0068973 0)
(0.069132339 1.0170097 0)
(0.055489102 1.0253005 0)
(0.037383333 1.031144 0)
(0.016496374 1.0343479 0)
(-0.0040030105 1.0390619 0)
(-0.017780409 1.0314138 0)
(-0.031919286 1.0312201 0)
(-0.04594083 1.0309154 0)
(-0.059835645 1.0305041 0)
(-0.073628488 1.0299166 0)
(-0.087338185 1.0289325 0)
(-0.10088398 1.0270868 0)
(-0.11392118 1.0235875 0)
(-0.12560181 1.0173083 0)
(-0.13430737 1.0069556 0)
(-0.13748808 0.99152073 0)
(-0.13184583 0.97104285 0)
(-0.11414685 0.94745516 0)
(-0.082716262 0.92490346 0)
(-0.038967211 0.90880342 0)
(0.012008056 0.90384727 0)
(0.062826941 0.91169322 0)
(0.10531389 0.93252526 0)
(0.13245909 0.96096389 0)
(0.14248221 0.99006563 0)
(0.13764588 1.0147137 0)
(0.12213905 1.0324624 0)
(0.10036517 1.0431321 0)
(0.075936406 1.0478658 0)
(0.051359068 1.0482312 0)
(0.028152008 1.0456406 0)
(0.0071452714 1.0410799 0)
(-0.011240724 1.0351105 0)
(-0.026647829 1.027743 0)
(-0.038528015 1.0186098 0)
(-0.045963773 1.0073166 0)
(-0.047640523 0.99370625 0)
(-0.042048308 0.97827779 0)
(-0.028005683 0.96253888 0)
(-0.0054677821 0.94894737 0)
(0.024013887 0.94014977 0)
(0.056997749 0.93869211 0)
(0.088754683 0.94551988 0)
(0.11450367 0.9595194 0)
(0.13082843 0.97793721 0)
(0.13632073 0.99736903 0)
(0.13163921 1.0147362 0)
(0.11894373 1.02806 0)
(0.1010027 1.0366472 0)
(0.080442901 1.0407805 0)
(0.059357848 1.0412286 0)
(0.039238933 1.0388311 0)
(0.02109906 1.0342479 0)
(0.0056729743 1.027866 0)
(-0.0063895656 1.0198308 0)
(-0.014356992 1.0101543 0)
(-0.017361249 0.99891083 0)
(-0.014467835 0.98655296 0)
(-0.0049688444 0.97411507 0)
(0.011237072 0.96327474 0)
(0.033052913 0.95626599 0)
(0.057922348 0.95523378 0)
(0.082000073 0.96141316 0)
(0.10095066 0.97447421 0)
(0.11108721 0.99238635 0)
(0.11046077 1.0119865 0)
(0.099292875 1.0301543 0)
(0.079405446 1.044772 0)
(0.053291586 1.054885 0)
(0.023440211 1.0603497 0)
(-0.0048909243 1.056694 0)
(-0.022012398 1.0472632 0)
(-0.039475241 1.0469411 0)
(-0.056749126 1.046481 0)
(-0.073846039 1.0459498 0)
(-0.09087937 1.0453292 0)
(-0.1080405 1.0443885 0)
(-0.12550033 1.0425099 0)
(-0.14318948 1.0384981 0)
(-0.16041287 1.0304672 0)
(-0.17531357 1.0159884 0)
(-0.18434283 0.99275043 0)
(-0.18214026 0.95993272 0)
(-0.16253338 0.92008679 0)
(-0.1212428 0.88034751 0)
(-0.059401326 0.85092629 0)
(0.015272289 0.84058109 0)
(0.091133675 0.85314725 0)
(0.15407661 0.89018753 0)
(0.19074315 0.94033096 0)
(0.20026632 0.98961517 0)
(0.18821702 1.0294753 0)
(0.16223937 1.0565929 0)
(0.12936519 1.0716008 0)
(0.094710038 1.0771146 0)
(0.061366728 1.0761183 0)
(0.030872243 1.0710706 0)
(0.0038128981 1.0635769 0)
(-0.019822657 1.0544911 0)
(-0.039976052 1.0436707 0)
(-0.056237339 1.0303504 0)
(-0.067532022 1.013558 0)
(-0.071899654 0.99258246 0)
(-0.066664167 0.9677778 0)
(-0.049232938 0.9413903 0)
(-0.018587557 0.91771905 0)
(0.023489506 0.90188994 0)
(0.071745261 0.89858276 0)
(0.1185804 0.9099928 0)
(0.15599202 0.93394768 0)
(0.1787561 0.96529939 0)
(0.18496247 0.99792687 0)
(0.17616876 1.0263643 0)
(0.1562918 1.0473737 0)
(0.12988007 1.0601727 0)
(0.10085521 1.0656654 0)
(0.07202258 1.0654528 0)
(0.045128788 1.061094 0)
(0.021171116 1.0537179 0)
(0.00077963303 1.0438984 0)
(-0.01548712 1.0317463 0)
(-0.026815871 1.017044 0)
(-0.031977086 0.99962292 0)
(-0.029402264 0.97988025 0)
(-0.017506467 0.95922869 0)
(0.004560897 0.94041249 0)
(0.035874241 0.9274225 0)
(0.072970289 0.92440642 0)
(0.10984361 0.93395184 0)
(0.13940607 0.95575366 0)
(0.15545108 0.98619766 0)
(0.15484277 1.0192771 0)
(0.13852764 1.0492248 0)
(0.11000493 1.0726157 0)
(0.073348404 1.0883389 0)
(0.032105381 1.0966426 0)
(-0.0058609532 1.0779523 0)
(-0.02651979 1.0665544 0)
(-0.047473692 1.0660095 0)
(-0.06808741 1.0652863 0)
(-0.088373077 1.0645811 0)
(-0.10854715 1.0640279 0)
(-0.12905769 1.0635125 0)
(-0.15052553 1.0623828 0)
(-0.17350787 1.0590667 0)
(-0.19795974 1.050708 0)
(-0.22229695 1.0330933 0)
(-0.24212424 1.0013708 0)
(-0.24914006 0.9522202 0)
(-0.23171086 0.88782257 0)
(-0.17950784 0.81976723 0)
(-0.092592482 0.76777388 0)
(0.016779286 0.74661117 0)
(0.13199829 0.76437539 0)
(0.22806056 0.83001811 0)
(0.27476459 0.91664946 0)
(0.27856143 0.99623702 0)
(0.25218033 1.0565739 0)
(0.20915677 1.09438 0)
(0.16031249 1.1126946 0)
(0.11237029 1.1170054 0)
(0.068624422 1.1125916 0)
(0.030134842 1.1033957 0)
(-0.0032303119 1.0917786 0)
(-0.032210355 1.0789743 0)
(-0.057515077 1.0645033 0)
(-0.079194278 1.046928 0)
(-0.096213502 1.0241919 0)
(-0.10583259 0.99429712 0)
(-0.10347224 0.95673786 0)
(-0.083726529 0.91436223 0)
(-0.043033672 0.87433981 0)
(0.016761605 0.84656207 0)
(0.087461138 0.83934327 0)
(0.1571166 0.85789408 0)
(0.21123562 0.89758503 0)
(0.24243943 0.94894635 0)
(0.24808595 1.001477 0)
(0.23165181 1.0456452 0)
(0.20039294 1.0765224 0)
(0.16179852 1.0937813 0)
(0.12155808 1.0997794 0)
(0.08317524 1.0976444 0)
(0.04840446 1.09009 0)
(0.017906069 1.0789099 0)
(-0.0081282751 1.0648601 0)
(-0.029411887 1.0479414 0)
(-0.045285679 1.0273727 0)
(-0.054134113 1.0023617 0)
(-0.053433469 0.97282402 0)
(-0.040040035 0.94030147 0)
(-0.011383974 0.90888932 0)
(0.032937248 0.88535724 0)
(0.088110744 0.87780367 0)
(0.14475231 0.89142668 0)
(0.19112268 0.92634504 0)
(0.2163651 0.9764561 0)
(0.21509243 1.0302279 0)
(0.19042333 1.0770321 0)
(0.14935731 1.1119382 0)
(0.098551142 1.1344 0)
(0.042828566 1.145854 0)
(-0.0069681287 1.1032312 0)
(-0.031500328 1.0895459 0)
(-0.056247122 1.0886033 0)
(-0.080369914 1.0873809 0)
(-0.10381184 1.0862905 0)
(-0.12684942 1.0857709 0)
(-0.15022404 1.086058 0)
(-0.17521079 1.0867613 0)
(-0.2034821 1.0861994 0)
(-0.23652071 1.0805581 0)
(-0.27425112 1.063173 0)
(-0.31255263 1.0246972 0)
(-0.33975314 0.95571825 0)
(-0.33432292 0.85443477 0)
(-0.27126729 0.73766373 0)
(-0.14814089 0.64850695 0)
(0.010968885 0.60624849 0)
(0.19169678 0.62290867 0)
(0.35008496 0.7468254 0)
(0.39964295 0.89575564 0)
(0.3857205 1.0191401 0)
(0.33227097 1.1051698 0)
(0.26204842 1.1527847 0)
(0.19083606 1.1707881 0)
(0.12630252 1.1698361 0)
(0.070883244 1.1585657 0)
(0.024301754 1.1427266 0)
(-0.014939855 1.1255529 0)
(-0.048744727 1.108559 0)
(-0.079134245 1.0908267 0)
(-0.10722703 1.0699525 0)
(-0.13259077 1.0420642 0)
(-0.15186937 1.0025505 0)
(-0.15764226 0.94832815 0)
(-0.13905322 0.88186293 0)
(-0.086649089 0.81479216 0)
(-0.0016255796 0.76628729 0)
(0.10387101 0.75019225 0)
(0.21042393 0.78111099 0)
(0.28824343 0.84620636 0)
(0.33072258 0.92878761 0)
(0.33272059 1.0117654 0)
(0.30196939 1.0779784 0)
(0.25234747 1.1205773 0)
(0.19616165 1.1412883 0)
(0.14123672 1.1455823 0)
(0.091413871 1.1392045 0)
(0.047902889 1.1265741 0)
(0.010520936 1.1103414 0)
(-0.021497293 1.0914499 0)
(-0.048638024 1.0695065 0)
(-0.070609033 1.0428166 0)
(-0.085610308 1.0092876 0)
(-0.089885482 0.96746576 0)
(-0.077703332 0.91814619 0)
(-0.042528193 0.86652215 0)
(0.019273305 0.82419184 0)
(0.10158566 0.80698526 0)
(0.18957558 0.82491997 0)
(0.26357249 0.87965583 0)
(0.30363201 0.96193261 0)
(0.29892574 1.0483051 0)
(0.25937187 1.1186111 0)
(0.1993593 1.1674242 0)
(0.1294787 1.1968282 0)
(0.055701066 1.2110272 0)
(-0.0082946507 1.1331889 0)
(-0.037282303 1.1166953 0)
(-0.066372338 1.1150658 0)
(-0.094365493 1.1128958 0)
(-0.12098742 1.1108931 0)
(-0.14641541 1.1099912 0)
(-0.17158278 1.1111332 0)
(-0.19851508 1.1147528 0)
(-0.23052724 1.119787 0)
(-0.27192652 1.122124 0)
(-0.32658663 1.1125773 0)
(-0.39418584 1.0749734 0)
(-0.46209936 0.98682829 0)
(-0.49174997 0.8314408 0)
(-0.42210409 0.62145606 0)
(-0.23978969 0.47806012 0)
(-0.022406085 0.40103246 0)
(0.27313478 0.36813159 0)
(0.57512826 0.66320256 0)
(0.58544867 0.89454937 0)
(0.53061542 1.0752127 0)
(0.42858101 1.1901408 0)
(0.31642891 1.2413193 0)
(0.21565102 1.2506748 0)
(0.13204579 1.2373845 0)
(0.064872897 1.2141428 0)
(0.011356242 1.1883391 0)
(-0.032164721 1.1638984 0)
(-0.069266539 1.1424233 0)
(-0.10364624 1.1226831 0)
(-0.13854426 1.1011888 0)
(-0.17545619 1.0714657 0)
(-0.21156575 1.0241687 0)
(-0.23604851 0.94983641 0)
(-0.22775943 0.84693508 0)
(-0.16327086 0.73285025 0)
(-0.042483669 0.649137 0)
(0.11903029 0.61011107 0)
(0.29169892 0.66856566 0)
(0.39896083 0.77381211 0)
(0.45847489 0.90555524 0)
(0.44947278 1.0365323 0)
(0.39140409 1.132997 0)
(0.31186127 1.1873302 0)
(0.23064691 1.207685 0)
(0.15721144 1.2057152 0)
(0.094492864 1.1912124 0)
(0.0421017 1.170787 0)
(-0.0017719396 1.1479753 0)
(-0.03940898 1.1239264 0)
(-0.072807829 1.0975538 0)
(-0.10264904 1.0657199 0)
(-0.12747806 1.0240991 0)
(-0.14238429 0.96829072 0)
(-0.13789686 0.8961958 0)
(-0.09994579 0.81241196 0)
(-0.016067835 0.73500019 0)
(0.10934643 0.69820353 0)
(0.24792089 0.71917703 0)
(0.36932367 0.8034029 0)
(0.43546889 0.94223807 0)
(0.41772698 1.0819554 0)
(0.34974333 1.183078 0)
(0.26057672 1.2459046 0)
(0.16548863 1.2800795 0)
(0.070237119 1.2951485 0)
(-0.0099450405 1.1688537 0)
(-0.044338349 1.1487833 0)
(-0.078707462 1.1460399 0)
(-0.11127356 1.1421673 0)
(-0.14128591 1.1381923 0)
(-0.16847365 1.135714 0)
(-0.19358764 1.1368313 0)
(-0.21917383 1.1436761 0)
(-0.25044229 1.1572272 0)
(-0.29589403 1.1750434 0)
(-0.36706627 1.1874489 0)
(-0.47565882 1.1710093 0)
(-0.62134694 1.0796812 0)
(-0.73522921 0.85004343 0)
(-0.69124557 0.41614219 0)
(-0.36828505 0.23667381 0)
(-0.1187283 0.14272059 0)
(0.4902088 0.64580464 0)
(0.71381827 0.93607644 0)
(0.69321213 1.1839084 0)
(0.52910361 1.3332913 0)
(0.35946654 1.3710403 0)
(0.22457848 1.355751 0)
(0.1227334 1.319542 0)
(0.046196844 1.2778089 0)
(-0.011595629 1.2379954 0)
(-0.056112779 1.204335 0)
(-0.09309316 1.1782576 0)
(-0.12833935 1.1587182 0)
(-0.16850222 1.141751 0)
(-0.2195835 1.1181147 0)
(-0.28302985 1.0711463 0)
(-0.34691607 0.97736491 0)
(-0.37110668 0.81983343 0)
(-0.29802462 0.61596595 0)
(-0.11856502 0.47847069 0)
(0.12471859 0.36342208 0)
(0.43336198 0.52494096 0)
(0.55428845 0.66911396 0)
(0.65367257 0.88294867 0)
(0.6142414 1.0923858 0)
(0.50249581 1.2281659 0)
(0.37432455 1.2881979 0)
(0.25919131 1.2986383 0)
(0.16439875 1.2821896 0)
(0.088876971 1.2537178 0)
(0.028992569 1.2218568 0)
(-0.019582391 1.1907485 0)
(-0.061170071 1.1617389 0)
(-0.10014648 1.1328023 0)
(-0.13928778 1.0989641 0)
(-0.17873924 1.0525851 0)
(-0.21359998 0.98399428 0)
(-0.23063243 0.88393052 0)
(-0.20297095 0.74979008 0)
(-0.094042595 0.60012433 0)
(0.10427457 0.52973059 0)
(0.32265835 0.54839886 0)
(0.52874762 0.67121898 0)
(0.65093753 0.92399423 0)
(0.58628773 1.1520601 0)
(0.46249943 1.2864951 0)
(0.32945831 1.3564067 0)
(0.2032376 1.3883884 0)
(0.084862042 1.4000599 0)
(-0.012026845 1.2116871 0)
(-0.053234442 1.1870322 0)
(-0.094314173 1.1826116 0)
(-0.13265436 1.1759 0)
(-0.16665329 1.1681187 0)
(-0.19499711 1.1615674 0)
(-0.21745716 1.1599109 0)
(-0.23623382 1.1680591 0)
(-0.2577986 1.1911536 0)
(-0.29494127 1.2320916 0)
(-0.36814214 1.2866409 0)
(-0.50354159 1.3300022 0)
(-0.70708818 1.2767026 0)
(-0.67103243 0.84488795 0)
(0.54188949 0.83640754 0)
(0.83241235 1.3202641 0)
(0.58725912 1.5467587 0)
(0.36081838 1.5462145 0)
(0.20094771 1.4830886 0)
(0.089517996 1.4120113 0)
(0.0099636344 1.3456097 0)
(-0.047131991 1.2880744 0)
(-0.088120426 1.2427286 0)
(-0.11927893 1.2114113 0)
(-0.14882551 1.1946322 0)
(-0.18815635 1.1899386 0)
(-0.25166748 1.1874644 0)
(-0.35405411 1.1627469 0)
(-0.49632809 1.0658147 0)
(-0.60061027 0.82729808 0)
(-0.54481469 0.41099361 0)
(-0.21490859 0.25231229 0)
(0.34898655 0.41656501 0)
(0.63746798 0.47088846 0)
(0.95917315 0.89765488 0)
(0.84507982 1.2150819 0)
(0.62734994 1.3945707 0)
(0.42415067 1.4377823 0)
(0.26882621 1.4182182 0)
(0.15419865 1.3745193 0)
(0.069404921 1.3245711 0)
(0.0060226016 1.2770509 0)
(-0.043124923 1.2359613 0)
(-0.085023616 1.2027012 0)
(-0.12680053 1.174692 0)
(-0.17501084 1.1451976 0)
(-0.23379762 1.1025956 0)
(-0.30168482 1.0295656 0)
(-0.36628195 0.9036429 0)
(-0.3808381 0.69410075 0)
(-0.26828884 0.36917706 0)
(0.086749995 0.26533663 0)
(0.40649384 0.27329786 0)
(0.76151311 0.41041717 0)
(1.0493614 0.9821346 0)
(0.81318948 1.3065705 0)
(0.58476027 1.4536126 0)
(0.39300131 1.5077271 0)
(0.23473273 1.523168 0)
(0.096426168 1.5244754 0)
(-0.014615702 1.2635377 0)
(-0.064493304 1.2331545 0)
(-0.11423608 1.226419 0)
(-0.16020168 1.2153704 0)
(-0.19951425 1.2010335 0)
(-0.22899351 1.1861141 0)
(-0.24611348 1.1759448 0)
(-0.25094469 1.1791371 0)
(-0.24911805 1.2072006 0)
(-0.25514071 1.2717255 0)
(-0.29040263 1.3757875 0)
(-0.36548112 1.4871746 0)
(-0.35203422 1.4378409 0)
(0.63442159 1.5824439 0)
(0.40913651 1.8138444 0)
(0.26104053 1.7388734 0)
(0.12619641 1.6141055 0)
(0.025295203 1.5042832 0)
(-0.048097573 1.4108368 0)
(-0.098799281 1.333277 0)
(-0.1304218 1.2730694 0)
(-0.14767683 1.234004 0)
(-0.16008153 1.2208754 0)
(-0.18393902 1.2365918 0)
(-0.24388832 1.2773894 0)
(-0.37555443 1.319535 0)
(-0.60401881 1.2681 0)
(-0.60341812 0.80087674 0)
(0.77539303 0.96472552 0)
(0.96888964 1.4533053 0)
(0.67954208 1.6662874 0)
(0.41720094 1.6439851 0)
(0.23694542 1.5621707 0)
(0.11495604 1.4764685 0)
(0.029846013 1.398095 0)
(-0.03011071 1.3308676 0)
(-0.07315305 1.2782183 0)
(-0.10839941 1.2418264 0)
(-0.14647311 1.2197815 0)
(-0.19940329 1.2047812 0)
(-0.2782841 1.1818045 0)
(-0.38776764 1.1244702 0)
(-0.50885431 0.9901366 0)
(-0.44864126 0.60511689 0)
(0.87509119 1.2339705 0)
(0.76612635 1.5755391 0)
(0.61867595 1.6937025 0)
(0.41810293 1.6971488 0)
(0.24671032 1.6776798 0)
(0.10054344 1.6614022 0)
(-0.017705845 1.326423 0)
(-0.078375832 1.2892668 0)
(-0.13915095 1.2796936 0)
(-0.19540506 1.2627203 0)
(-0.2427078 1.2383829 0)
(-0.27510356 1.20889 0)
(-0.28592713 1.1806146 0)
(-0.27025469 1.166123 0)
(-0.22930055 1.1851717 0)
(-0.17855508 1.2608168 0)
(-0.14356696 1.393177 0)
(-0.13154136 1.5057462 0)
(-0.072653768 1.3039383 0)
(0.23026671 0.9214989 0)
(0.18028054 1.8367428 0)
(0.095736823 1.8472222 0)
(0.0097968741 1.714284 0)
(-0.067467142 1.5824779 0)
(-0.12888106 1.4678294 0)
(-0.17017262 1.3688526 0)
(-0.18766022 1.2883398 0)
(-0.18132753 1.2345932 0)
(-0.16002171 1.2205631 0)
(-0.1430969 1.2580889 0)
(-0.15734849 1.3546483 0)
(-0.22983495 1.4950312 0)
(-0.26715487 1.5014063 0)
(0.67937917 1.7137756 0)
(0.43805667 1.9538911 0)
(0.28142643 1.855139 0)
(0.14070836 1.7032766 0)
(0.037671146 1.5732901 0)
(-0.034877869 1.4646733 0)
(-0.082473875 1.3758213 0)
(-0.11076291 1.3093525 0)
(-0.12866709 1.2700764 0)
(-0.15092416 1.2594302 0)
(-0.19674276 1.2718599 0)
(-0.28502018 1.2885131 0)
(-0.40728319 1.2575826 0)
(-0.36626148 1.0668757 0)
(0.15976648 -0.023579455 0)
(0.61436664 1.4867437 0)
(0.53988317 1.8477005 0)
(0.38235787 1.8731301 0)
(0.22984055 1.8301674 0)
(0.094293002 1.7971736 0)
(-0.021147492 1.4020882 0)
(-0.094596997 1.3576167 0)
(-0.16891031 1.345218 0)
(-0.23906589 1.3213898 0)
(-0.29929572 1.283869 0)
(-0.3401932 1.2324556 0)
(-0.34864644 1.1725737 0)
(-0.3104689 1.1195539 0)
(-0.21457585 1.102847 0)
(-0.079413849 1.1744571 0)
(0.043753635 1.3365764 0)
(0.11345314 1.4862367 0)
(0.12294753 1.3199629 0)
(0.063090003 0.83241964 0)
(0.006917519 1.8532452 0)
(-0.055935187 1.9088925 0)
(-0.11675827 1.7834114 0)
(-0.17778714 1.6456838 0)
(-0.23152507 1.5159586 0)
(-0.26650304 1.3935205 0)
(-0.26927341 1.2826071 0)
(-0.22995005 1.1990357 0)
(-0.15493959 1.1706306 0)
(-0.068755363 1.2186383 0)
(0.001627487 1.3501583 0)
(0.037624573 1.5288906 0)
(0.062597901 1.4721889 0)
(0.23936706 1.0291081 0)
(0.15395251 1.9805086 0)
(0.07292662 1.9624905 0)
(-0.0044586203 1.8006251 0)
(-0.073526026 1.6476451 0)
(-0.12584116 1.5157126 0)
(-0.15528588 1.403556 0)
(-0.15924595 1.3183436 0)
(-0.14486567 1.2731222 0)
(-0.13180089 1.2772613 0)
(-0.14901875 1.330421 0)
(-0.23486368 1.4052417 0)
(-0.41542618 1.3587464 0)
(-0.37393679 0.71330412 0)
(0.43331261 1.5859323 0)
(0.36864026 1.9677633 0)
(0.29534888 2.0101219 0)
(0.1879017 1.9590524 0)
(0.078916258 1.9168415 0)
(-0.024577593 1.4913066 0)
(-0.11199045 1.4400689 0)
(-0.2019082 1.4261 0)
(-0.29039428 1.3965593 0)
(-0.37164888 1.3450497 0)
(-0.43306257 1.265476 0)
(-0.45248104 1.1579805 0)
(-0.40170396 1.0364039 0)
(-0.23669883 0.92670923 0)
(0.039528361 0.97897304 0)
(0.29012289 1.2063635 0)
(0.39973923 1.4498358 0)
(0.3500376 1.4415117 0)
(-0.054359509 0.95468047 0)
(-0.1474216 1.8871963 0)
(-0.19440075 1.9489778 0)
(-0.24198276 1.8361094 0)
(-0.29820629 1.7021617 0)
(-0.35559935 1.5629898 0)
(-0.39665588 1.4133214 0)
(-0.39314788 1.2544771 0)
(-0.31378984 1.1109877 0)
(-0.15973129 1.0454153 0)
(0.024861777 1.0899077 0)
(0.20377637 1.2494509 0)
(0.33424015 1.4989732 0)
(0.32900477 1.5798771 0)
(0.13947863 -0.13899378 0)
(-0.046367585 1.0448173 0)
(-0.083541437 1.9868666 0)
(-0.11932159 2.0059044 0)
(-0.16002031 1.8562968 0)
(-0.20558158 1.6988054 0)
(-0.24316334 1.5492571 0)
(-0.2558055 1.4088609 0)
(-0.22750884 1.2918724 0)
(-0.16064782 1.2300097 0)
(-0.082967159 1.2464797 0)
(-0.030276722 1.3510818 0)
(-0.044759669 1.5360305 0)
(-0.10274515 1.6113684 0)
(0.18871263 1.0684022 0)
(0.22671099 1.9291687 0)
(0.19901713 2.074554 0)
(0.13613165 2.0485765 0)
(0.059205093 2.0099749 0)
(-0.027373986 1.592942 0)
(-0.12816668 1.5372613 0)
(-0.23419565 1.5250696 0)
(-0.34521811 1.4950897 0)
(-0.45881121 1.4348955 0)
(-0.5620534 1.3266541 0)
(-0.61987815 1.1568608 0)
(-0.5901931 0.93322134 0)
(-0.38823388 0.57155836 0)
(0.19288861 0.57978566 0)
(0.67168528 1.0326361 0)
(0.78973384 1.3917705 0)
(0.87240327 1.627894 0)
(0.92491021 1.1108015 0)
(0.2029985 -0.15538802 0)
(-0.26130097 1.2383319 0)
(-0.29762889 1.9290344 0)
(-0.31894408 1.9783581 0)
(-0.35855832 1.8841047 0)
(-0.42109025 1.7648456 0)
(-0.49952023 1.6255003 0)
(-0.57314542 1.4473336 0)
(-0.59106953 1.214292 0)
(-0.47218403 0.94477906 0)
(-0.19506982 0.81225522 0)
(0.13153343 0.83985739 0)
(0.45965825 1.0214649 0)
(0.73819709 1.394936 0)
(0.87440671 1.7256152 0)
(0.91133837 1.1298935 0)
(-0.036617685 -0.17440148 0)
(-0.28157082 1.2097733 0)
(-0.28887241 1.9747695 0)
(-0.28876837 2.0144264 0)
(-0.3108143 1.8891231 0)
(-0.35031331 1.7387418 0)
(-0.38985587 1.5748947 0)
(-0.4003341 1.3942924 0)
(-0.33664614 1.2136448 0)
(-0.18842319 1.1112824 0)
(-0.0091558952 1.1269854 0)
(0.16270676 1.2708177 0)
(0.2795368 1.5375477 0)
(0.29230673 1.6983883 0)
(0.049757119 -0.041323314 0)
(0.086718087 0.89388922 0)
(0.14560887 1.8875794 0)
(0.12938843 2.104767 0)
(0.090816436 2.1052545 0)
(0.040417251 2.0755151 0)
(-0.028716053 1.7029831 0)
(-0.13937295 1.6473496 0)
(-0.25851584 1.6427322 0)
(-0.39285982 1.6237832 0)
(-0.54979515 1.5719577 0)
(-0.7220155 1.4476157 0)
(-0.81413453 1.1910532 0)
(-0.62328967 0.78408523 0)
(0.67025955 0.95382332 0)
(1.0639602 1.2994181 0)
(1.2364699 1.5105984 0)
(1.2951086 1.2224515 0)
(0.98977548 0.68758071 0)
(-0.27269289 0.068017241 0)
(-0.35369632 -0.022392177 0)
(-0.25254074 -0.064495228 0)
(0.073145864 -0.13793322 0)
(0.12686892 0.023300194 0)
(-0.36112436 1.3603977 0)
(-0.40341045 1.9403474 0)
(-0.4145445 1.9988027 0)
(-0.45409058 1.9363151 0)
(-0.53232998 1.8481726 0)
(-0.65216162 1.7300044 0)
(-0.80689976 1.5391928 0)
(-0.9111791 1.2006906 0)
(-0.80126563 0.61698781 0)
(-0.28169392 0.41958774 0)
(0.23236126 0.42164177 0)
(0.76669436 0.58073159 0)
(1.2794273 1.2347209 0)
(1.3314937 1.608992 0)
(1.2751892 1.2959301 0)
(0.82452661 0.67021987 0)
(-0.012586946 0.0027197693 0)
(0.14706761 -0.031718238 0)
(0.030497697 0.14345376 0)
(-0.38545447 1.3646618 0)
(-0.42379063 1.964405 0)
(-0.42141525 2.0144145 0)
(-0.44563201 1.9204364 0)
(-0.50011788 1.7885258 0)
(-0.57090315 1.6173333 0)
(-0.62082058 1.3821457 0)
(-0.53443982 1.0563086 0)
(-0.25088954 0.8760453 0)
(0.080977978 0.87799604 0)
(0.41545937 1.0454424 0)
(0.70348116 1.4363168 0)
(0.87764966 1.83682 0)
(0.94134075 1.1835722 0)
(0.031148588 -0.12368968 0)
(0.048656622 0.82538853 0)
(0.088614364 1.8659866 0)
(0.075019126 2.1217106 0)
(0.052892622 2.1387779 0)
(0.023955515 2.1171555 0)
(-0.027889424 1.8141914 0)
(-0.14114037 1.7645132 0)
(-0.26434379 1.7740612 0)
(-0.41175258 1.7826945 0)
(-0.60590156 1.7697711 0)
(-0.85584299 1.6461716 0)
(-0.78843665 1.0370128 0)
(0.82491606 1.0907057 0)
(1.2763373 1.35857 0)
(1.4147238 1.3398537 0)
(1.2028676 1.0337467 0)
(0.76131252 0.70611788 0)
(0.29840562 0.33682056 0)
(-0.098707616 -0.19660217 0)
(-0.072328882 -0.34986166 0)
(-0.1884797 0.5211656 0)
(-0.42155818 1.4980408 0)
(-0.45768925 1.9532429 0)
(-0.46967713 2.0210893 0)
(-0.51303261 1.9983702 0)
(-0.60411234 1.9608359 0)
(-0.75918356 1.9039162 0)
(-0.98086322 1.7522799 0)
(-0.89411829 1.1481937 0)
(1.1187207 1.2792155 0)
(1.4126239 1.6656487 0)
(1.3427007 1.5968867 0)
(1.0111008 1.1836617 0)
(0.6719383 0.72251167 0)
(-0.29799866 -0.085402853 0)
(-0.15042425 -0.12696857 0)
(0.082003841 -0.13651221 0)
(-0.17944329 0.65052367 0)
(-0.45589297 1.5353868 0)
(-0.50481661 1.9728982 0)
(-0.51309433 2.025586 0)
(-0.55236439 1.9690113 0)
(-0.63864283 1.8738453 0)
(-0.77982589 1.7227834 0)
(-0.96338081 1.4506868 0)
(-0.95028343 0.71990631 0)
(-0.37447515 0.46108085 0)
(0.17522326 0.44779496 0)
(0.71955485 0.59205327 0)
(1.2532729 1.2530001 0)
(1.3559538 1.6603846 0)
(1.3791574 1.3304079 0)
(0.96981953 0.70850108 0)
(-0.31898933 0.034001383 0)
(-0.37460257 -0.0045259366 0)
(-0.39268442 -0.0060129284 0)
(-0.2965371 -0.070727115 0)
(0.0080417712 -0.22127138 0)
(0.039638715 0.78007235 0)
(0.039383455 1.868339 0)
(0.026848307 2.1304897 0)
(0.02003392 2.1536477 0)
(0.0096030721 2.1382605 0)
(-0.024869088 1.9175246 0)
(-0.13068227 1.8783514 0)
(-0.24231845 1.9035198 0)
(-0.36950353 1.9467433 0)
(-0.50908565 1.9907963 0)
(-0.48017086 1.8701415 0)
(0.89319003 1.1147765 0)
(1.2859182 1.3432701 0)
(1.2301875 1.3061901 0)
(0.98700954 1.0719761 0)
(0.66975826 0.69987139 0)
(0.33905949 0.22374273 0)
(-0.079536563 -0.21193015 0)
(-0.27066615 0.73630111 0)
(-0.43315029 1.58962 0)
(-0.46859699 1.9661783 0)
(-0.48413703 2.0463519 0)
(-0.52428147 2.0623161 0)
(-0.59725998 2.0762786 0)
(-0.68468742 2.0764162 0)
(-0.57771109 1.9083608 0)
(0.9351022 1.6063929 0)
(1.0004746 1.7159305 0)
(0.9555657 1.4710309 0)
(0.76220889 1.0033407 0)
(0.41640974 0.40883263 0)
(0.13234505 -0.15335144 0)
(-0.046205558 -0.019937663 0)
(-0.32239293 0.95892964 0)
(-0.5051341 1.6594459 0)
(-0.54513366 1.9888997 0)
(-0.56152938 2.0511138 0)
(-0.61240094 2.040589 0)
(-0.71317263 2.0072978 0)
(-0.84474193 1.9249547 0)
(-0.7361785 1.6565105 0)
(1.1088278 1.2688382 0)
(1.4411622 1.6291341 0)
(1.482628 1.5477942 0)
(1.2102762 1.1164113 0)
(0.74483351 0.71955131 0)
(0.25741293 0.35201294 0)
(-0.13089103 -0.0051316863 0)