/*--------------------------------*- C++ -*----------------------------------*\
  =========                 |
  \\      /  F ield         | OpenFOAM: The Open Source CFD Toolbox
   \\    /   O peration     | Website:  https://openfoam.org
    \\  /    A nd           | Version:  7
     \\/     M anipulation  |
\*---------------------------------------------------------------------------*/
FoamFile
{
    version     2.0;
    format      ascii;
    class       volScalarField;
    location    "50/solid";
    object      T;
}
// * * * * * * * * * * * * * * * * * * * * * * * * * * * * * * * * * * * * * //

dimensions      [0 0 0 1 0 0 0];

internalField   nonuniform List<scalar> 
2296
(
321.71899
321.7368
321.74251
321.74394
321.73761
321.73531
318.66171
321.73719
321.7447
321.74917
321.75042
321.74824
321.7445
321.73911
318.67326
318.67812
318.67686
318.67857
318.67594
319.98363
319.98837
319.98886
319.98533
321.74332
321.74992
321.75414
321.7557
321.7546
321.75126
321.74577
318.67254
318.67969
318.684
318.68548
318.68526
318.68249
318.67659
319.98647
319.99242
319.99574
319.99614
319.99341
321.74628
321.75256
321.75687
321.75877
321.75818
321.75523
321.75005
318.677
318.68348
318.68799
318.69017
318.69007
318.68728
318.68099
319.99282
319.99816
320.00123
320.00166
319.99931
319.99396
321.74522
321.7523
321.7571
321.75941
321.75917
321.75652
321.75132
318.67733
318.68443
318.68942
318.69214
318.69257
318.69069
319.98547
319.99519
320.00121
320.00447
320.00506
320.00282
319.99715
321.74965
321.75488
321.75771
321.75759
321.75537
318.6831
318.68818
318.69143
318.69257
318.69117
319.98697
319.99555
320.00188
320.00544
320.00628
320.00477
321.57115
321.57338
318.68435
318.68795
319.99423
320.00038
320.00423
320.00501
320.00336
321.58243
321.58552
321.58632
321.58588
322.95376
322.9599
322.96129
322.9581
321.58682
321.59312
321.59661
321.59772
321.59666
321.59404
322.95779
322.96516
322.96969
322.97099
322.96886
322.9644
320.32817
320.3344
320.33624
320.33376
321.59501
321.60133
321.60499
321.60633
321.6055
321.60251
321.59744
322.96694
322.97388
322.97794
322.97924
322.9778
322.97368
320.33824
320.34315
320.34486
320.34336
320.33973
321.60142
321.60713
321.61072
321.61216
321.61154
321.60879
321.60347
322.97449
322.98036
322.984
322.98532
322.98438
322.98141
320.3376
320.34587
320.35017
320.35182
320.3509
320.34775
321.60493
321.61011
321.61367
321.61511
321.61471
321.6127
322.9791
322.98419
322.98745
322.98876
322.98812
322.98545
320.34229
320.35031
320.3549
320.35647
320.3557
320.35317
321.61405
321.61493
321.61461
322.98571
322.98781
322.98925
322.98901
320.35488
320.3576
320.3585
320.35738
320.3546
322.98347
320.35772
320.35763
320.35578
326.68116
326.67885
323.59998
323.60128
326.21817
326.22525
326.23001
326.23199
326.68593
326.68942
326.68816
326.68488
326.67883
323.60248
323.60832
323.61005
323.60997
323.60876
323.60305
326.2168
326.22662
326.23287
326.23677
326.23825
326.23804
326.68221
326.68945
326.6924
326.6919
326.68855
326.68262
323.60869
323.61335
323.61581
323.61609
323.61422
323.60951
326.22351
326.23205
326.23786
326.24108
326.24181
326.2401
326.68508
326.69119
326.69388
326.6933
326.68986
326.6839
323.61112
323.61574
323.61857
323.61935
323.61789
323.61394
326.22757
326.23531
326.24048
326.24297
326.24282
326.24012
326.69226
326.69363
326.69262
326.68877
326.68222
323.60958
323.61508
323.61841
323.61991
323.61917
323.61593
326.22882
326.23628
326.24085
326.24255
326.24145
326.23774
326.68942
326.69109
326.68993
326.68535
323.61161
323.61499
323.61785
323.61805
326.23587
326.23909
326.24004
326.23764
323.60662
326.30926
326.31266
328.27688
330.29114
330.29645
330.2959
326.31799
326.32267
326.32493
326.327
326.32274
328.293
328.29622
328.30375
328.30635
328.30437
330.29708
330.30398
330.30741
330.30769
330.30672
330.30023
326.32842
326.33275
326.33459
326.33427
326.33061
326.32357
328.29489
328.30311
328.30847
328.31265
328.31449
328.31325
330.29256
330.30588
330.31363
330.31695
330.31722
330.31481
330.30917
326.33722
326.34002
326.34134
326.34049
326.33692
326.33039
328.30287
328.31074
328.31625
328.31971
328.32089
328.31957
330.31822
330.32222
330.32452
330.32438
330.32164
330.31577
330.30408
326.34096
326.34398
326.3453
326.34455
326.34133
326.3348
328.30846
328.31575
328.32106
328.32416
328.32491
328.32322
330.32582
330.32815
330.32959
330.32917
330.32653
330.32183
326.34514
326.34635
326.34605
326.34415
328.31084
328.3178
328.32315
328.32602
328.32645
328.3243
330.32749
330.33016
330.33165
330.33131
330.32871
330.32424
326.34372
326.34435
328.32314
328.32529
328.32566
330.33052
330.33081
326.21108
331.67053
331.67928
331.68454
331.68649
331.68505
327.73105
327.7354
326.22187
326.22344
326.22551
326.22144
331.68017
331.68746
331.69191
331.69338
331.69204
327.73731
327.74065
327.74234
327.73997
326.22392
326.22859
326.23075
326.23077
326.22761
331.6766
331.68694
331.69359
331.69733
331.69822
331.69625
331.69098
327.73068
327.73922
327.74365
327.74523
327.74377
327.73901
326.22801
326.23249
326.23485
326.23483
326.23198
326.22554
331.6828
331.69155
331.69758
331.70069
331.70095
331.69831
331.69245
327.73147
327.73924
327.74433
327.74642
327.74548
327.74151
326.22852
326.23356
326.23636
326.2368
326.23453
326.22876
331.68565
331.69414
331.69958
331.70195
331.7016
331.69866
327.73788
327.74302
327.74572
327.74531
327.74181
326.23217
326.23522
326.2365
326.23567
331.69601
331.69966
331.70094
331.69999
331.69628
327.73977
327.74325
327.74326
326.23105
326.23349
331.69652
329.9691
329.97114
330.63949
330.64276
330.6408
329.97292
329.98092
329.9828
329.98307
329.98211
331.83115
331.83909
331.84374
331.84499
331.84277
330.64546
330.64986
330.65132
330.6498
330.64604
329.98226
329.98919
329.99255
329.99319
329.99154
329.98782
331.82949
331.83964
331.84668
331.85068
331.85176
331.85024
330.65357
330.65721
330.65821
330.65665
330.65235
330.64455
329.99016
329.99624
329.99971
330.00062
329.99918
329.99541
331.83579
331.84585
331.85238
331.8556
331.85626
331.85469
330.65967
330.66202
330.6627
330.66124
330.65715
330.64946
329.99524
330.00108
330.00448
330.00544
330.00422
330.00065
331.85306
331.8563
331.85812
331.85804
331.85605
330.66126
330.66366
330.6644
330.66343
330.66064
330.00464
330.00666
330.00744
330.0067
331.85532
331.85717
331.85757
331.8568
331.85452
330.66181
330.66289
330.66257
330.00351
330.00546
330.00609
330.0055
331.85228
331.85223
321.72641
321.74397
321.74712
321.74606
321.74177
321.73738
318.66875
321.74445
321.7501
321.75299
321.75288
321.75024
321.74573
321.73881
318.67944
318.68202
318.68188
318.68122
318.67682
319.99069
319.9929
319.99154
319.98649
321.74865
321.754
321.75699
321.75743
321.75543
321.75119
321.74479
318.67882
318.68441
318.68754
318.68833
318.68691
318.68251
318.67534
319.99315
319.9975
319.99932
319.99829
319.99489
321.74973
321.75533
321.75866
321.7595
321.75789
321.75392
321.74781
318.68119
318.68696
318.69055
318.69185
318.69073
318.68648
318.67761
319.99763
320.0019
320.00372
320.00282
319.99897
319.99176
321.74752
321.75401
321.75791
321.75909
321.75775
321.75407
321.74695
318.67999
318.68681
318.69091
318.69278
318.69239
318.68998
319.99141
319.99908
320.00387
320.00593
320.00531
320.00176
319.9938
321.74961
321.75506
321.75625
321.7548
321.75201
318.68366
318.68862
318.69091
318.69124
318.68866
319.99026
319.9985
320.00361
320.00586
320.00549
320.00337
321.57961
321.57792
318.6842
318.68553
319.99505
320.00138
320.00354
320.00266
319.99942
321.59022
321.59217
321.59203
321.58909
322.96275
322.96608
322.96542
322.96063
321.59478
321.59964
321.60203
321.60217
321.60017
321.59573
322.96665
322.97228
322.97509
322.97484
322.97168
322.96537
320.33658
320.34028
320.34017
320.33614
321.60184
321.60666
321.60917
321.6095
321.6077
321.60366
321.59735
322.97453
322.97966
322.98224
322.9823
322.97993
322.97531
320.34515
320.34814
320.34836
320.34593
320.34079
321.60651
321.61103
321.61353
321.614
321.61252
321.6088
321.60194
322.98015
322.98463
322.987
322.98727
322.98548
322.9822
320.34479
320.35093
320.35396
320.35435
320.35251
320.34913
321.6079
321.61252
321.61501
321.61546
321.61437
321.61195
322.98228
322.98685
322.98889
322.9894
322.98784
322.9839
320.34742
320.35483
320.35748
320.35763
320.35583
320.35267
321.61318
321.61352
321.61236
322.98616
322.98707
322.98863
322.9874
320.35691
320.35846
320.35794
320.35562
320.35174
322.97987
320.35646
320.35513
320.35175
326.68382
326.67995
323.60597
323.60446
326.22647
326.23185
326.23487
326.23521
326.69003
326.69125
326.68899
326.68436
326.67684
323.60881
323.6127
323.6136
323.61275
323.6095
323.60274
326.22547
326.23295
326.23776
326.2401
326.24008
326.23753
326.68765
326.69235
326.6935
326.69152
326.68686
326.67986
323.61287
323.6165
323.61807
323.6175
323.61451
323.60881
326.23023
326.23704
326.24121
326.24279
326.24183
326.23836
326.68862
326.69325
326.69397
326.69176
326.68682
326.67957
323.61352
323.61757
323.61967
323.6197
323.61736
323.61259
326.23261
326.23885
326.24233
326.24307
326.24115
326.23663
326.69224
326.69245
326.6898
326.6843
326.67536
323.61116
323.61563
323.61835
323.61938
323.61777
323.61349
326.23232
326.23852
326.24125
326.24106
326.23813
326.23203
326.68823
326.68896
326.68589
326.67842
323.61044
323.61335
323.61691
323.6153
326.23581
326.23818
326.23703
326.23151
323.60336
326.31796
326.31829
328.28684
330.30043
330.30249
330.30008
326.32622
326.32936
326.33056
326.32929
326.32348
328.30121
328.30541
328.30994
328.31025
328.30725
330.30615
330.31111
330.31295
330.31202
330.30835
330.30049
326.33531
326.33779
326.33828
326.3362
326.33098
326.32271
328.3036
328.31027
328.31485
328.31757
328.31768
328.31526
330.30184
330.31517
330.31991
330.32138
330.32012
330.31603
330.30934
326.34116
326.34329
326.34353
326.34144
326.33653
326.32885
328.31008
328.31657
328.32091
328.32304
328.32277
328.3201
330.32428
330.32676
330.32754
330.32604
330.32196
330.31401
330.29848
326.34302
326.34577
326.34617
326.34459
326.3403
326.3314
328.31383
328.32006
328.32421
328.326
328.32535
328.32222
330.32852
330.33052
330.33105
330.32957
330.32599
330.32156
326.34531
326.34579
326.34513
326.34311
328.31419
328.32072
328.32493
328.32647
328.32553
328.32162
330.3283
330.33089
330.3317
330.33046
330.32627
330.32069
326.34207
326.3417
328.32273
328.32443
328.32347
330.32954
330.32873
326.21767
331.67997
331.68641
331.6897
331.68988
331.68722
327.73671
327.7384
326.22703
326.22799
326.22697
326.22146
331.68777
331.6932
331.69583
331.69561
331.6929
327.74099
327.7435
327.74347
327.74042
326.22893
326.2323
326.23341
326.23196
326.22767
331.68512
331.69303
331.69792
331.69991
331.69904
331.6952
331.68862
327.7358
327.74222
327.74552
327.74584
327.74309
327.73719
326.23129
326.23494
326.23633
326.23515
326.23091
326.22347
331.68914
331.69634
331.70057
331.70191
331.70047
331.69603
331.68742
327.73438
327.74163
327.74549
327.74635
327.74416
327.73909
326.23054
326.23489
326.23684
326.23645
326.23311
326.22528
331.69021
331.69779
331.70118
331.70172
331.69977
331.69515
327.73868
327.74354
327.745
327.74326
327.73817
326.23186
326.23473
326.23543
326.23427
331.69712
331.69986
331.69891
331.69693
331.69051
327.73992
327.74189
327.74014
326.23022
326.2309
331.69303
329.97707
329.97534
330.64649
330.6468
330.64326
329.98192
329.98718
329.98853
329.9879
329.98452
331.83984
331.84567
331.84841
331.84808
331.84506
330.65227
330.65476
330.65462
330.65175
330.64614
329.99008
329.99505
329.99712
329.99675
329.99401
329.98853
331.83829
331.84677
331.85195
331.85419
331.85386
331.85139
330.65882
330.66066
330.66031
330.65746
330.65159
330.64276
329.99628
330.00101
330.00317
330.00298
330.00052
329.99615
331.84242
331.85221
331.8562
331.85762
331.85688
331.85414
330.66229
330.66382
330.66356
330.66118
330.65587
330.64562
329.99929
330.00468
330.00661
330.00654
330.00433
329.99914
331.85612
331.85795
331.85825
331.85696
331.85374
330.66232
330.66382
330.66394
330.66253
330.6595
330.00571
330.00704
330.00706
330.00595
331.85551
331.85663
331.85548
331.854
331.85058
330.66035
330.66093
330.66013
330.00274
330.00388
330.00391
330.00249
331.84926
331.8476
321.72752
321.74118
321.746
321.7472
321.74373
321.74005
318.66881
321.74061
321.7476
321.75191
321.7533
321.7518
321.74824
321.74266
318.67693
318.6812
318.68187
318.68204
318.67943
319.98833
319.99223
319.99267
319.9895
321.74526
321.75159
321.75581
321.75753
321.75672
321.75358
321.74826
318.67523
318.68191
318.68629
318.68819
318.68795
318.68511
318.67917
319.98991
319.99562
319.99876
319.99916
319.99678
321.74629
321.75279
321.7573
321.75939
321.75899
321.75619
321.75108
318.67774
318.68432
318.68904
318.69149
318.69161
318.6891
318.6818
319.99492
320.00003
320.00314
320.00363
320.00129
319.99577
321.74292
321.75118
321.75629
321.75884
321.75871
321.75623
321.75076
318.67557
318.68389
318.68914
318.69213
318.69289
318.69136
319.98702
319.99561
320.00182
320.00524
320.00595
320.00398
319.99781
321.74599
321.75296
321.75608
321.75577
321.75353
318.6802
318.68651
318.69003
318.69179
318.69023
319.98524
319.99494
320.0014
320.00509
320.00597
320.00456
321.57794
321.57962
318.68142
318.68558
319.99116
319.99882
320.0029
320.00343
320.00132
321.58776
321.59144
321.59237
321.59123
322.9596
322.96492
322.96625
322.96356
321.59107
321.59752
321.60112
321.60237
321.60143
321.59842
322.9625
322.9698
322.97406
322.97535
322.9736
322.96909
320.3332
320.33891
320.34069
320.33867
321.59851
321.60455
321.60819
321.6096
321.60887
321.60597
321.60079
322.97098
322.97742
322.98127
322.98259
322.98141
322.97789
320.34299
320.34696
320.34861
320.34745
320.34386
321.60361
321.609
321.61255
321.61401
321.6135
321.61101
321.60502
322.97728
322.98264
322.98608
322.9874
322.98662
322.98394
320.34046
320.34828
320.3528
320.35446
320.35368
320.35095
321.6052
321.61038
321.61412
321.61544
321.6151
321.61325
322.97954
322.98507
322.98806
322.98939
322.9889
322.98593
320.34293
320.35217
320.35651
320.35783
320.35694
320.35438
321.61251
321.61352
321.61316
322.98464
322.98644
322.98845
322.98825
320.35546
320.35798
320.35844
320.35699
320.35385
322.97992
320.35639
320.35603
320.35373
326.68451
326.68219
323.6052
323.60573
326.22321
326.22942
326.23368
326.23539
326.68838
326.69109
326.69039
326.687
326.68097
323.60591
323.6111
323.61335
323.61341
323.61162
323.60651
326.22052
326.22958
326.23567
326.23924
326.24037
326.23925
326.6841
326.69047
326.69334
326.69286
326.68951
326.68362
323.61047
323.61493
323.61754
323.61806
323.61634
323.612
326.22587
326.23397
326.23946
326.24232
326.24262
326.24041
326.68512
326.69164
326.69399
326.69322
326.68961
326.68344
323.6108
323.61579
323.61886
323.61997
323.61884
323.61526
326.22858
326.23607
326.24093
326.24304
326.24243
326.23922
326.69135
326.69266
326.69151
326.68736
326.68035
323.60736
323.61368
323.61715
323.61918
323.6189
323.61588
326.22811
326.23605
326.24023
326.24153
326.23988
326.23584
326.68674
326.689
326.68801
326.68235
323.60787
323.61166
323.61617
323.61651
326.23394
326.23729
326.2382
326.23456
323.60197
326.31585
326.31877
328.28599
330.29786
330.30201
330.30185
326.32309
326.32806
326.33017
326.33059
326.32684
328.29824
328.30313
328.30824
328.31056
328.30909
330.30206
330.30903
330.31242
330.31278
330.31078
330.30487
326.33351
326.33678
326.33831
326.33762
326.33399
326.32722
328.29914
328.30724
328.31277
328.3165
328.31796
328.31675
330.29497
330.31059
330.31804
330.321
330.32109
330.31846
330.31289
326.33967
326.34242
326.34367
326.34281
326.33936
326.33295
328.30601
328.31359
328.31901
328.32226
328.32321
328.32172
330.32294
330.32566
330.32741
330.32709
330.32435
330.3187
330.30569
326.34111
326.34479
326.34621
326.34565
326.3429
326.33575
328.3101
328.31717
328.32243
328.32541
328.32599
328.32408
330.32727
330.32965
330.33101
330.33058
330.32801
330.32371
326.34412
326.3456
326.34564
326.34439
328.31051
328.31758
328.3233
328.32599
328.32634
328.32387
330.32664
330.32973
330.3315
330.33138
330.32869
330.32353
326.34102
326.34225
328.32125
328.32384
328.32435
330.32877
330.32947
326.21711
331.67555
331.68359
331.68845
331.69017
331.68885
327.7345
327.7381
326.22547
326.22761
326.22812
326.22468
331.68425
331.69082
331.69488
331.69607
331.69451
327.73916
327.74251
327.74395
327.74222
326.22633
326.23089
326.23314
326.23305
326.23011
331.68013
331.68947
331.69584
331.69927
331.69984
331.69751
331.69212
327.73178
327.73943
327.74424
327.74606
327.74486
327.74051
326.22878
326.23338
326.23593
326.23609
326.23345
326.22748
331.68467
331.6931
331.69883
331.70159
331.70154
331.69868
331.69188
327.7297
327.73859
327.74393
327.74631
327.74564
327.74195
326.22708
326.2331
326.23614
326.23696
326.23525
326.22926
331.6855
331.69484
331.69986
331.70176
331.70108
331.69777
327.7351
327.74156
327.74469
327.74452
327.7411
326.22942
326.23352
326.23534
326.23533
331.69503
331.69888
331.69937
331.6984
331.69438
327.73706
327.7415
327.74138
326.22815
326.23121
331.69363
329.9757
329.97696
330.64478
330.64715
330.64547
329.97771
329.98511
329.98807
329.98848
329.98683
331.83595
331.84313
331.84743
331.84862
331.84685
330.64952
330.65383
330.65504
330.65351
330.64938
329.98646
329.99295
329.99642
329.99723
329.99568
329.99175
331.83321
331.84295
331.84975
331.85341
331.85433
331.85285
330.65725
330.65999
330.66078
330.65922
330.65495
330.6474
329.99316
329.99896
330.0024
330.00336
330.00203
329.99849
331.83688
331.84869
331.85458
331.8572
331.85751
331.85575
330.66097
330.66326
330.66393
330.66266
330.65902
330.65052
329.99609
330.00273
330.00592
330.00681
330.00575
330.00166
331.85497
331.85719
331.85828
331.85782
331.85563
330.66062
330.66321
330.66408
330.66343
330.66117
330.00469
330.00653
330.00722
330.00661
331.85451
331.85626
331.8558
331.85494
331.85285
330.65923
330.66085
330.6607
330.00148
330.00348
330.00403
330.00345
331.84822
331.84904
321.71826
321.74016
321.74382
321.74238
321.73558
321.73241
318.66166
321.74148
321.74729
321.75023
321.74971
321.7465
321.74199
321.73498
318.67621
318.6787
318.67682
318.67789
318.67294
319.98657
319.98911
319.98761
319.98194
321.7469
321.75235
321.75526
321.75546
321.75319
321.74879
321.74211
318.67648
318.68219
318.68507
318.68555
318.68428
318.67991
318.67252
319.99009
319.9944
319.99633
319.99515
319.99097
321.74962
321.755
321.75813
321.75878
321.75699
321.75291
321.74673
318.68043
318.68602
318.68937
318.69041
318.68905
318.68462
318.67712
319.99575
320.00001
320.00179
320.00083
319.99709
319.98922
321.749
321.755
321.75858
321.7596
321.75814
321.75426
321.74793
318.68105
318.68721
318.69107
318.69264
318.6919
318.68916
319.99039
319.99858
320.00317
320.0051
320.00431
320.00048
319.99331
321.75235
321.7567
321.75797
321.75669
321.75379
318.68575
318.69009
318.69223
318.69215
318.68969
319.99135
319.99906
320.00401
320.00619
320.00577
320.00354
321.57343
321.57102
318.68659
318.68835
319.99735
320.00271
320.00497
320.00444
320.00188
321.58524
321.58621
321.58585
321.58328
322.95748
322.96116
322.96029
322.9545
321.59074
321.5952
321.59744
321.59745
321.5953
321.59092
322.96224
322.96778
322.97077
322.97034
322.9667
322.9603
320.33187
320.33585
320.33557
320.33061
321.59855
321.60346
321.60594
321.60618
321.60428
321.60014
321.59368
322.97081
322.97625
322.97893
322.97885
322.97608
322.97043
320.34109
320.34442
320.3445
320.3416
320.3362
321.60453
321.60919
321.6117
321.61211
321.61045
321.60649
321.60033
322.97769
322.98247
322.98495
322.98513
322.98311
322.97946
320.34265
320.34834
320.35133
320.35167
320.34958
320.34538
321.60767
321.61214
321.61464
321.61513
321.61389
321.61144
322.98174
322.98609
322.98833
322.9887
322.98703
322.98365
320.34651
320.35305
320.35601
320.35635
320.35461
320.3515
321.6146
321.61494
321.61402
322.98694
322.98857
322.98938
322.98828
320.35637
320.35832
320.35817
320.35617
320.35276
322.9836
320.35788
320.35693
320.35425
326.6806
326.67625
323.60149
323.59937
326.22199
326.22794
326.23138
326.23164
326.68804
326.68974
326.68677
326.68232
326.67411
323.60573
323.61022
323.61021
323.60929
323.6064
323.59895
326.22243
326.23004
326.23512
326.23781
326.2382
326.23627
326.68634
326.69137
326.69257
326.69055
326.68591
326.67875
323.61124
323.6149
323.6162
323.61545
323.61225
323.60603
326.22812
326.23528
326.23979
326.24175
326.24126
326.23825
326.68844
326.69297
326.69397
326.69192
326.68717
326.68015
323.61362
323.6174
323.61922
323.61892
323.61624
323.61102
326.23174
326.23823
326.24205
326.24322
326.24179
326.23782
326.69315
326.69348
326.69105
326.68584
326.67804
323.61265
323.61698
323.61939
323.61985
323.61787
323.61346
326.23282
326.23893
326.24205
326.24234
326.23993
326.23473
326.69055
326.69092
326.68805
326.68241
323.61348
323.61644
323.61836
323.61719
326.23763
326.23995
326.23925
326.23564
323.60791
326.31196
326.31131
328.27726
330.29459
330.29691
330.29312
326.32151
326.32404
326.3255
326.32561
326.31876
328.29615
328.29836
328.30574
328.30588
328.30162
330.30175
330.30604
330.30794
330.30694
330.30411
330.29538
326.33098
326.33393
326.33473
326.3329
326.32747
326.31865
328.29967
328.30607
328.31065
328.31397
328.31422
328.31171
330.29912
330.31052
330.31571
330.31744
330.31635
330.3124
330.30528
326.33874
326.34092
326.34122
326.33907
326.33401
326.32613
328.30713
328.31377
328.31824
328.32061
328.32053
328.31803
330.32028
330.32366
330.32476
330.32335
330.31916
330.31111
330.29668
326.34259
326.34489
326.3452
326.34329
326.33855
326.33072
328.31234
328.31867
328.32289
328.32484
328.32437
328.32149
330.327
330.32906
330.32965
330.32814
330.32438
330.3193
326.34595
326.3464
326.34529
326.34277
328.31448
328.32074
328.32489
328.32654
328.32572
328.32228
330.32893
330.33111
330.33174
330.33032
330.32661
330.32188
326.34429
326.34398
328.32433
328.32577
328.32494
330.33095
330.3302
326.21171
331.67536
331.68233
331.68593
331.68621
331.68286
327.73376
327.73561
326.22382
326.22396
326.22421
326.21779
331.68415
331.69006
331.69301
331.69304
331.69053
327.73922
327.74153
327.7416
327.73767
326.22679
326.22998
326.23104
326.22964
326.22479
331.68217
331.69064
331.69582
331.69813
331.69759
331.69414
331.68717
327.73522
327.74183
327.74478
327.74489
327.74188
327.73513
326.23049
326.23395
326.23516
326.23379
326.22933
326.22103
331.68746
331.69494
331.6995
331.70118
331.7
331.69581
331.68876
327.73553
327.74216
327.74575
327.74634
327.74387
327.73848
326.23129
326.23525
326.23689
326.23604
326.23214
326.22491
331.69009
331.69727
331.70113
331.7021
331.70043
331.69653
327.74061
327.74475
327.7459
327.74394
327.73902
326.23384
326.23613
326.23632
326.23456
331.69795
331.70072
331.7007
331.69855
331.69319
327.74193
327.74366
327.74224
326.23268
326.23348
331.69594
329.97122
329.96889
330.64187
330.64239
330.63792
329.97746
329.98301
329.98318
329.98241
329.97933
331.83552
331.84183
331.84479
331.84432
331.84016
330.64869
330.65092
330.65094
330.64802
330.64234
329.98617
329.9913
329.99316
329.99265
329.98978
329.9843
331.83488
331.84354
331.84905
331.85157
331.85129
331.84873
330.65578
330.65802
330.65776
330.65486
330.64897
330.63956
329.9935
329.99831
330.00046
330.00019
329.99759
329.99258
331.8409
331.84961
331.85434
331.85623
331.85573
331.85318
330.66101
330.66261
330.66226
330.65957
330.65383
330.64487
329.99828
330.00312
330.00523
330.0051
330.00274
329.99847
331.85473
331.85745
331.85832
331.85729
331.85431
330.66269
330.66423
330.66414
330.66225
330.65887
330.00573
330.00725
330.00724
330.00595
331.85634
331.85764
331.85733
331.85588
331.85248
330.66253
330.66289
330.66202
330.00466
330.00592
330.00595
330.00475
331.85262
331.85109
)
;

boundaryField
{
    top
    {
        type            empty;
    }
    bottom
    {
        type            empty;
    }
    solid_to_fluid
    {
        type            compressible::turbulentTemperatureCoupledBaffleMixed;
        refValue        nonuniform List<scalar> 
936
(
301.0158
306.37184
301.8026
304.28125
303.38828
306.97232
310.55417
308.3358
302.89345
301.54215
302.73987
302.3905
304.89373
302.93724
307.6241
302.44616
303.49169
302.55756
306.74515
309.59072
304.03207
302.08264
302.37153
302.21572
303.86724
303.82585
302.88241
301.25089
305.62584
304.74601
303.91299
302.05548
306.49748
301.66703
304.3716
302.50444
307.60072
307.52267
307.03573
304.10886
303.53732
306.64111
314.32008
302.04101
306.6284
307.71071
304.37406
315.08265
315.08265
306.01194
303.21307
303.9893
305.4568
314.57093
316.58317
316.58317
303.97279
311.65018
310.78981
304.21017
317.93801
317.93801
300.92415
301.1081
301.01285
300.61413
304.42479
314.10682
313.73611
311.46545
310.4457
303.34594
307.87511
316.35728
316.35728
312.25681
304.29455
312.02889
313.07844
303.50994
302.25854
305.8265
301.90008
301.5576
301.2352
302.65592
302.67808
301.85191
300.96414
304.66538
310.0604
303.36341
313.67871
313.25844
311.41177
309.11229
303.70535
301.97071
306.58295
302.95315
302.97833
301.41357
306.54762
301.67099
300.73406
300.16442
301.73468
301.84374
301.19857
300.46478
304.31644
307.50727
303.89785
304.14881
305.78043
305.1773
305.57635
301.27163
307.14688
309.64311
308.12728
315.88706
302.91576
301.27921
309.3058
309.91243
320.09794
320.09794
312.98898
315.68966
303.30996
313.56811
317.52025
319.13295
320.35293
319.49785
319.49785
317.05315
320.0122
320.4161
320.4161
315.95001
317.97073
312.58646
312.36829
312.36559
312.60867
315.4748
319.89393
319.63599
319.63599
316.87373
317.05008
319.09932
313.80045
313.80045
310.88653
312.57197
310.93766
309.58644
315.38962
321.96685
311.80812
313.27352
307.29749
308.09736
307.72003
307.24359
304.1571
307.95139
306.9453
309.36549
311.52761
319.37831
314.25543
316.00366
319.3963
318.17482
307.04521
308.1423
307.44837
310.3179
314.576
307.89774
304.56022
306.95691
303.30717
322.89923
316.08235
313.80692
310.5434
309.48343
312.56333
306.85934
305.45112
316.39012
312.02996
310.23867
312.52915
309.55621
307.42487
314.79184
321.93871
324.33967
309.65098
310.42285
312.11243
309.14903
312.53869
320.27175
318.37267
318.37267
308.91555
317.88936
320.52739
320.52739
318.12333
321.1926
319.85321
319.85321
314.28566
316.61111
318.7305
311.36783
308.22518
311.936
320.23766
320.23766
315.76452
315.019
316.55206
318.6555
311.3038
305.22608
305.42683
305.16959
310.15764
305.83058
307.91613
308.38999
308.65478
307.59586
307.47349
308.8234
308.69377
308.92819
307.09361
306.20245
318.56294
309.46622
305.71404
310.34174
307.84744
319.02749
310.8772
309.4577
309.65271
308.91607
308.22919
318.72793
310.79065
307.06313
312.12483
310.92467
304.77691
309.15197
306.48364
320.92926
310.41006
309.43781
312.71924
320.35092
307.17361
308.75812
320.09673
325.96831
328.76322
320.42391
308.01361
319.52011
309.80467
311.07138
319.09127
326.37896
327.40085
327.40085
321.36471
323.65621
324.38525
324.38525
313.11766
318.27951
323.99804
322.04852
319.14414
322.39683
324.48982
324.48982
321.77419
323.51769
325.55871
324.10665
324.10665
323.1538
324.71646
326.77461
327.90044
327.90044
323.01663
315.82356
315.9983
316.91328
319.7066
321.3393
322.86383
322.75953
309.92293
310.97936
316.70583
310.4315
308.69209
312.9821
314.46034
315.413
315.65324
317.04579
312.51243
313.42583
317.74945
320.46366
312.95301
312.3495
322.25351
311.96024
308.28249
313.03192
324.44608
319.02133
322.60662
316.57213
315.9722
313.95976
312.49548
311.8469
312.89622
309.18869
324.85832
317.02784
316.08139
311.94104
320.79535
311.87724
315.02511
316.38027
308.47682
311.38031
317.90246
312.4168
313.40536
314.94085
310.2239
313.51814
325.74161
325.74161
312.78779
320.13568
314.71773
313.88357
321.85716
323.8411
323.8411
324.59552
327.53165
317.32064
312.52849
317.86434
323.06097
323.06097
313.1309
316.49441
323.73077
323.73077
322.63781
326.76131
329.242
324.21743
324.21743
324.458
310.04933
310.13053
310.45337
310.20512
313.9603
320.56185
318.29529
313.39983
317.32922
323.56096
312.88583
312.85296
313.262
312.25792
312.4114
309.86495
307.89155
313.72932
316.06208
311.14901
311.43788
310.74411
314.07012
315.56216
315.86683
314.80959
314.91112
314.09972
313.14955
319.23951
312.01328
310.83029
315.57215
311.42341
312.35939
310.05353
324.96294
318.40492
316.67215
310.53707
314.50534
315.62671
312.49084
324.21801
324.89296
312.74633
317.8267
322.99701
327.05867
330.04632
322.95549
323.70356
328.15263
328.15263
326.73638
328.09905
328.51486
328.51486
327.56585
321.29902
323.97868
327.54861
329.07402
329.07402
323.89615
326.38264
325.11892
324.78025
327.74147
324.73398
324.73398
319.76778
319.20851
319.61206
320.20386
318.60272
317.88349
318.93312
317.9252
319.04823
301.28244
305.64661
308.41508
314.94801
314.94801
308.3358
304.25378
301.49145
309.14004
309.14004
307.6241
304.37802
304.94688
310.17966
310.17966
309.59072
305.54503
302.8751
303.16535
303.9626
303.48359
302.07549
304.23043
303.55063
307.35389
307.35389
306.49748
303.2536
308.02645
308.02645
303.30461
306.9585
305.94875
303.09041
302.56814
304.25312
314.32008
303.93936
307.33191
307.60022
304.55825
304.45839
313.148
311.52536
311.52536
302.98898
305.59561
314.57093
307.43818
312.02298
303.73858
311.65018
312.65593
304.00267
304.9976
316.00784
301.25382
300.61023
305.0731
306.97556
314.62258
312.59505
310.56685
313.29118
312.09724
303.6788
307.87511
311.97897
309.32039
312.76635
303.82287
312.02889
315.56651
306.88472
306.88472
305.8265
302.76236
302.20218
302.88686
302.36015
301.21701
305.01634
309.77179
312.62135
308.39598
303.91112
306.38826
313.90962
312.4114
310.25585
309.75855
307.9502
306.72996
306.72996
306.58295
303.67916
306.56073
306.56073
306.54762
302.68765
301.31212
301.93045
301.6195
300.65247
303.05739
307.50727
304.68947
302.63347
303.21969
301.87256
305.57635
302.0689
305.70293
305.74999
305.98242
310.70757
314.20398
314.20398
303.16097
308.57209
314.54288
317.83956
310.52394
316.21311
302.23725
313.64772
311.06981
318.46672
320.35293
317.91486
317.2928
314.84718
320.0122
315.32302
318.61506
304.47237
317.97073
312.91881
317.07086
312.37625
312.45446
315.79797
312.73229
315.24541
319.89393
317.30446
317.49461
316.64
315.28071
319.09932
311.44055
311.80176
316.17259
314.19938
311.73778
317.59332
311.77009
310.23576
309.10722
308.76519
313.57097
310.01321
307.72565
307.13311
305.65302
308.21295
310.45997
312.54141
316.7173
323.2252
323.2252
318.17482