/*--------------------------------*- C++ -*----------------------------------*\
  =========                 |
  \\      /  F ield         | OpenFOAM: The Open Source CFD Toolbox
   \\    /   O peration     | Website:  https://openfoam.org
    \\  /    A nd           | Version:  7
     \\/     M anipulation  |
\*---------------------------------------------------------------------------*/
FoamFile
{
    version     2.0;
    format      ascii;
    class       volScalarField;
    location    "2000/fluid";
    object      alphat;
}
// * * * * * * * * * * * * * * * * * * * * * * * * * * * * * * * * * * * * * //

dimensions      [1 -1 -1 0 0 0 0];

internalField   nonuniform List<scalar> 
13296
(
1.6473004e-09
2.2168693e-09
2.2168737e-09
2.21688e-09
2.2168963e-09
2.2169467e-09
2.2169967e-09
2.2169861e-09
2.2169427e-09
2.2169106e-09
2.2169181e-09
2.2169427e-09
2.2169376e-09
2.2169099e-09
2.2168833e-09
2.2168849e-09
2.2169083e-09
2.216914e-09
2.2168979e-09
2.2168752e-09
2.2168743e-09
2.2168967e-09
2.2169065e-09
2.216895e-09
2.2168734e-09
2.2168708e-09
2.2168921e-09
2.216904e-09
2.2168952e-09
2.2168735e-09
2.2168681e-09
2.2168876e-09
2.2169008e-09
2.2168937e-09
2.2168724e-09
2.2168671e-09
2.2168869e-09
2.2169003e-09
2.2168933e-09
2.2168723e-09
2.2168675e-09
2.2168876e-09
2.2169011e-09
2.2168942e-09
2.2168728e-09
2.2168668e-09
2.216886e-09
2.2168994e-09
2.2168923e-09
2.2168712e-09
2.2168668e-09
2.2168874e-09
2.2169001e-09
2.2168915e-09
2.2168707e-09
2.2168687e-09
2.2168911e-09
2.2169026e-09
2.216892e-09
2.2168712e-09
2.2168712e-09
2.2168958e-09
2.2169086e-09
2.2169018e-09
2.2168861e-09
2.2168781e-09
1.1532274e-09
1.3378509e-09
1.3376936e-09
1.3371017e-09
1.3357144e-09
1.3366474e-09
1.3407193e-09
1.3437979e-09
1.3428037e-09
1.3394604e-09
1.3385032e-09
1.3412476e-09
1.3436364e-09
1.3424758e-09
1.3391049e-09
1.3380687e-09
1.3406485e-09
1.3429798e-09
1.3419459e-09
1.3387193e-09
1.3377713e-09
1.340357e-09
1.3427117e-09
1.341762e-09
1.3386142e-09
1.3377274e-09
1.3403426e-09
1.3427191e-09
1.341785e-09
1.3385952e-09
1.3376275e-09
1.3401258e-09
1.3424455e-09
1.3415466e-09
1.3384168e-09
1.3375105e-09
1.3400432e-09
1.3423864e-09
1.3415109e-09
1.338418e-09
1.3375562e-09
1.3401379e-09
1.3425022e-09
1.3416085e-09
1.3384451e-09
1.3374928e-09
1.3399706e-09
1.3422766e-09
1.3413815e-09
1.3382729e-09
1.3373646e-09
1.3398811e-09
1.342202e-09
1.3413018e-09
1.3382259e-09
1.3373534e-09
1.3399215e-09
1.3422566e-09
1.3413283e-09
1.3382293e-09
1.337375e-09
1.3400846e-09
1.3428243e-09
1.3426464e-09
1.3403876e-09
1.3393117e-09
9.4993746e-10
1.0302419e-09
1.030257e-09
1.0289739e-09
1.0245908e-09
1.0264572e-09
1.0375289e-09
1.0467362e-09
1.0442751e-09
1.0340371e-09
1.0309497e-09
1.0389576e-09
1.0464035e-09
1.0433646e-09
1.0330177e-09
1.0299136e-09
1.037584e-09
1.0447529e-09
1.0418964e-09
1.0320576e-09
1.0292083e-09
1.0369189e-09
1.0440831e-09
1.041347e-09
1.0317995e-09
1.0291108e-09
1.0369297e-09
1.0441369e-09
1.0414027e-09
1.0317436e-09
1.0288704e-09
1.0363963e-09
1.0434193e-09
1.0407586e-09
1.0312994e-09
1.0285956e-09
1.0361972e-09
1.0432659e-09
1.0406646e-09
1.0312978e-09
1.0287079e-09
1.0364461e-09
1.0435851e-09
1.0409274e-09
1.0313745e-09
1.0285508e-09
1.0360117e-09
1.0429782e-09
1.0403376e-09
1.0309557e-09
1.0282502e-09
1.0357725e-09
1.0427701e-09
1.0401485e-09
1.0308577e-09
1.0282242e-09
1.0358536e-09
1.0429043e-09
1.040241e-09
1.0308693e-09
1.0282404e-09
1.0361348e-09
1.0441488e-09
1.0434708e-09
1.0363935e-09
1.0337489e-09
8.5020247e-10
8.8493384e-10
8.8593986e-10
8.848118e-10
8.7745581e-10
8.8073856e-10
9.0298146e-10
9.1977171e-10
9.1601584e-10
8.9444031e-10
8.8698336e-10
9.0452201e-10
9.1889163e-10
9.1355379e-10
8.9311253e-10
8.851813e-10
9.0205724e-10
9.1577525e-10
9.1042031e-10
8.9138961e-10
8.8411227e-10
9.0096457e-10
9.1455612e-10
9.0933243e-10
8.9082858e-10
8.8396499e-10
9.0107988e-10
9.1477155e-10
9.0946461e-10
8.907451e-10
8.835433e-10
9.0005526e-10
9.1335613e-10
9.0815844e-10
8.8998024e-10
8.8316547e-10
8.9974459e-10
9.1306644e-10
9.0796375e-10
8.8994715e-10
8.8335293e-10
9.0024738e-10
9.1374349e-10
9.0852502e-10
8.9013207e-10
8.8307235e-10
8.9937221e-10
9.1250762e-10
9.0737386e-10
8.894536e-10
8.8267544e-10
8.989602e-10
9.1207654e-10
9.0704232e-10
8.8932063e-10
8.8268166e-10
8.9912058e-10
9.1232588e-10
9.0727757e-10
8.8943511e-10
8.8270186e-10
8.9922893e-10
9.1357059e-10
9.1153902e-10
8.9573227e-10
8.8979253e-10
8.3732697e-10
8.6804151e-10
8.4818967e-10
8.3488643e-10
8.918134e-10
8.6649867e-10
9.3771813e-10
9.0177394e-10
9.0500721e-10
9.5276639e-10
8.7689287e-10
9.3426667e-10
8.9633647e-10
9.011622e-10
9.422637e-10
8.7378752e-10
9.2655654e-10
8.8881252e-10
8.9507173e-10
9.3428721e-10
8.7221098e-10
9.2367569e-10
8.8602916e-10
8.9302171e-10
9.3123373e-10
8.7222172e-10
9.2420819e-10
8.8658854e-10
8.9420863e-10
9.3024979e-10
8.7154095e-10
9.2081145e-10
8.8321375e-10
8.9108478e-10
9.2762208e-10
8.7097603e-10
9.2020721e-10
8.8262936e-10
8.9047272e-10
9.2745982e-10
8.7136899e-10
9.2187764e-10
8.842858e-10
8.9223996e-10
9.2810954e-10
8.7077305e-10
9.1895667e-10
8.8138128e-10
8.8919447e-10
9.2646133e-10
8.7000396e-10
9.1812575e-10
8.8055898e-10
8.8791845e-10
9.2682129e-10
8.6989226e-10
9.189095e-10
8.8132334e-10
8.8828522e-10
9.2826845e-10
8.6955433e-10
9.1614981e-10
8.7883366e-10
8.8017463e-10
9.0268158e-10
8.3326781e-10
7.8032427e-10
5.5507692e-10
8.1754035e-10
6.1469389e-10
9.0434195e-10
9.0633753e-10
6.2540563e-10
9.0451954e-10
8.8508645e-10
6.1733549e-10
8.970684e-10
8.6776129e-10
6.1399694e-10
8.9452713e-10
8.6057811e-10
6.1600374e-10
8.9636272e-10
8.5874006e-10
6.115536e-10
8.9158045e-10
8.524691e-10
6.1017446e-10
8.906564e-10
8.5194677e-10
6.1292605e-10
8.9327141e-10
8.5387654e-10
6.0838184e-10
8.8883144e-10
8.4987545e-10
6.0577645e-10
8.8719701e-10
8.5059435e-10
6.0583704e-10
8.8762246e-10
8.5366181e-10
5.9856974e-10
8.7771828e-10
8.524399e-10
5.2234284e-10
7.2948604e-10
3.9916403e-10
7.6326846e-10
4.4377864e-10
8.7268292e-10
8.8103076e-10
4.558556e-10
8.7642955e-10
8.5449338e-10
4.4988433e-10
8.7069356e-10
8.3267451e-10
4.4751891e-10
8.6892047e-10
8.2360855e-10
4.5023138e-10
8.7154569e-10
8.2103443e-10
4.4608518e-10
8.6689124e-10
8.1333005e-10
4.447221e-10
8.6589031e-10
8.1270406e-10
4.4759105e-10
8.6866886e-10
8.1501614e-10
4.4293518e-10
8.6401877e-10
8.1026771e-10
4.3993308e-10
8.6190632e-10
8.1143165e-10
4.3955073e-10
8.6177569e-10
8.15491e-10
4.2989331e-10
8.4975194e-10
8.1178818e-10
3.6180976e-10
6.8461471e-10
2.8426372e-10
7.1590584e-10
3.0719563e-10
8.5521761e-10
8.5979272e-10
3.2222202e-10
8.5717559e-10
8.3816013e-10
3.1969412e-10
8.5079513e-10
8.1694025e-10
3.1880912e-10
8.4897501e-10
8.0839243e-10
3.2223299e-10
8.5179453e-10
8.0745977e-10
3.1894044e-10
8.4712721e-10
7.9922696e-10
3.176636e-10
8.4608301e-10
7.9823156e-10
3.2041377e-10
8.4896817e-10
8.014693e-10
3.1606715e-10
8.441667e-10
7.954604e-10
3.1271064e-10
8.4183687e-10
7.9529801e-10
3.1169052e-10
8.4162283e-10
7.9875112e-10
3.003909e-10
8.2949786e-10
7.8437547e-10
2.4900896e-10
6.4298704e-10
2.0267175e-10
6.724052e-10
2.1455836e-10
8.4758067e-10
8.4030637e-10
2.2883185e-10
8.4422161e-10
8.2932017e-10
2.2807748e-10
8.359101e-10
8.1190109e-10
2.2798657e-10
8.3353012e-10
8.0538338e-10
2.3148437e-10
8.3621237e-10
8.0746376e-10
2.2887934e-10
8.3138966e-10
7.9936819e-10
2.2775695e-10
8.3032553e-10
7.9786244e-10
2.3022726e-10
8.3328508e-10
8.0228835e-10
2.263827e-10
8.2835139e-10
7.9480147e-10
2.231372e-10
8.2599556e-10
7.9228754e-10
2.2189854e-10
8.2596762e-10
7.9416736e-10
2.1081226e-10
8.148599e-10
7.6483414e-10
1.7183969e-10
6.0412798e-10
1.4553977e-10
6.3166412e-10
1.5687265e-10
8.4580611e-10
8.2341044e-10
1.6726484e-10
8.3555287e-10
8.2717688e-10
1.6653913e-10
8.2468065e-10
8.1603458e-10
1.6652882e-10
8.2152006e-10
8.1268603e-10
1.6957179e-10
8.2387054e-10
8.188064e-10
1.6736379e-10
8.1880626e-10
8.1135494e-10
1.6642716e-10
8.1773426e-10
8.0922944e-10
1.6855088e-10
8.2075467e-10
8.1504697e-10
1.652502e-10
8.1569183e-10
8.059114e-10
1.624767e-10
8.1342026e-10
8.0025632e-10
1.6141267e-10
8.1374257e-10
7.9985898e-10
1.5185101e-10
8.0412812e-10
7.5229315e-10
1.1965131e-10
5.6803933e-10
1.057172e-10
5.9366637e-10
1.2299509e-10
8.4741716e-10
8.1216875e-10
1.2822761e-10
8.3007112e-10
8.3345243e-10
1.264068e-10
8.1643099e-10
8.3022736e-10
1.2602075e-10
8.1238728e-10
8.3086631e-10
1.2833471e-10
8.1431376e-10
8.4178429e-10
1.2628793e-10
8.0894733e-10
8.3531434e-10
1.2553683e-10
8.0787423e-10
8.324873e-10
1.2731541e-10
8.1095066e-10
8.3985292e-10
1.2451589e-10
8.0575463e-10
8.2893009e-10
1.2238491e-10
8.0364603e-10
8.1957943e-10
1.2172018e-10
8.04385e-10
8.1638387e-10
1.142506e-10
7.9638468e-10
7.4806762e-10
8.4506934e-11
5.3469448e-10
7.7965239e-11
5.5846132e-10
1.0463947e-10
8.514887e-10
8.0939955e-10
1.0468065e-10
8.2711345e-10
8.5031458e-10
1.0113839e-10
8.1075132e-10
8.5631481e-10
1.0012677e-10
8.0580354e-10
8.615353e-10
1.016195e-10
8.0727657e-10
8.7785531e-10
9.956534e-11
8.0156627e-10
8.7259598e-10
9.8981392e-11
8.0049582e-10
8.6899131e-10
1.0045472e-10
8.0362758e-10
8.7806001e-10
9.8072572e-11
7.9829213e-10
8.6519452e-10
9.6621258e-11
7.96386e-10
8.5168735e-10
9.6454404e-11
7.9756624e-10
8.4531285e-10
9.1163327e-11
7.9107745e-10
7.538456e-10
6.0835327e-11
5.0395997e-10
5.8566537e-11
5.2597394e-10
9.6407803e-11
8.5725051e-10
8.1719749e-10
9.1698823e-11
8.2618443e-10
8.7975257e-10
8.6207495e-11
8.0734378e-10
8.9602861e-10
8.4437512e-11
8.0152406e-10
9.0634739e-10
8.511171e-11
8.0255126e-10
9.2865687e-10
8.2926341e-11
7.9647317e-10
9.2477562e-10
8.2484186e-11
7.9540687e-10
9.203117e-10
8.3708252e-11
7.9859545e-10
9.3125871e-10
8.1645368e-11
7.9311463e-10
9.1625832e-10
8.0844532e-11
7.9142545e-10
8.9814499e-10
8.1207203e-11
7.930442e-10
8.8824389e-10
7.7953102e-11
7.8783894e-10
7.7116762e-10
4.4822627e-11
4.7562192e-10
4.4923694e-11
4.9601929e-10
9.5199354e-11
8.6414788e-10
8.372937e-10
8.5977437e-11
8.2690664e-10
9.2349834e-10
7.8595284e-11
8.059242e-10
9.5106329e-10
7.5998417e-11
7.9930455e-10
9.6699308e-10
7.5891163e-11
7.9991991e-10
9.9592192e-10
7.3474764e-11
7.9346789e-10
9.9355319e-10
7.3148829e-11
7.9240523e-10
9.8813613e-10
7.4182277e-11
7.9565357e-10
1.0011699e-09
7.2341022e-11
7.9002269e-10
9.8379374e-10
7.214019e-11
7.885446e-10
9.6058866e-10
7.3039075e-11
7.9057842e-10
9.4680624e-10
7.1526302e-11
7.8634327e-10
8.0139477e-10
3.3897866e-11
4.4944711e-10
3.5239214e-11
4.6836196e-10
9.870154e-11
8.7185735e-10
8.7113606e-10
8.5416591e-11
8.2899924e-10
9.8326548e-10
7.6223896e-11
8.0617761e-10
1.0231841e-09
7.2861679e-11
7.9886128e-10
1.0452819e-09
7.2040397e-11
7.9912387e-10
1.0815523e-09
6.9303421e-11
7.9230794e-10
1.0808197e-09
6.9071093e-11
7.9124647e-10
1.0743375e-09
6.9968736e-11
7.9455907e-10
1.089711e-09
6.8258487e-11
7.8877428e-10
1.0696593e-09
6.8608993e-11
7.8748348e-10
1.040803e-09
7.0019772e-11
7.8988788e-10
1.0227436e-09
6.9820198e-11
7.862863e-10
8.4581518e-10
2.6346807e-11
4.2524392e-10
2.8278848e-11
4.428147e-10
1.05576e-10
8.8027494e-10
9.2017509e-10
8.8721195e-11
8.322852e-10
1.0608838e-09
7.7716175e-11
8.0785006e-10
1.114359e-09
7.3641163e-11
7.9991029e-10
1.1432584e-09
7.2249035e-11
7.9987664e-10
1.1877229e-09
6.9160825e-11
7.9271424e-10
1.1887406e-09
6.8992651e-11
7.9165012e-10
1.181061e-09
6.9816764e-11
7.950331e-10
1.1990773e-09
6.8146916e-11
7.8909006e-10
1.1759831e-09
6.8936933e-11
7.8795432e-10
1.1408244e-09
7.0779753e-11
7.9068795e-10
1.1180292e-09
7.1554324e-11
7.8743634e-10
9.0582352e-10
2.1036837e-11
4.0276978e-10
2.3198388e-11
4.1912266e-10
1.1532997e-10
8.8953074e-10
9.8605011e-10
9.5128831e-11
8.3675151e-10
1.1584195e-09
8.2233051e-11
8.1083051e-10
1.226876e-09
7.7452253e-11
8.0229824e-10
1.2633076e-09
7.5587032e-11
8.0199068e-10
1.3154595e-09
7.2116285e-11
7.9447647e-10
1.3162203e-09
7.1987072e-11
7.9340875e-10
1.3075529e-09
7.2792775e-11
7.9686603e-10
1.3279749e-09
7.1082343e-11
7.9075963e-10
1.3016553e-09
7.2218556e-11
7.8977172e-10
1.2618046e-09
7.4452122e-11
7.9282066e-10
1.2349639e-09
7.5966266e-11
7.8968429e-10
9.8300635e-10
1.7223101e-11
3.8182105e-10
1.9421692e-11
3.9706778e-10
1.2788223e-10
9.0002898e-10
1.070576e-09
1.0423071e-10
8.4262478e-10
1.2782454e-09
8.9296607e-11
8.1522586e-10
1.362746e-09
8.3780077e-11
8.060824e-10
1.40377e-09
8.1496981e-11
8.0548745e-10
1.4620315e-09
7.759428e-11
7.9758572e-10
1.4622672e-09
7.7485322e-11
7.9651627e-10
1.4524718e-09
7.8318083e-11
8.0005118e-10
1.4756374e-09
7.6496118e-11
7.9377201e-10
1.445646e-09
7.7921828e-11
7.9295222e-10
1.4009606e-09
8.0534102e-11
7.9633318e-10
1.3712271e-09
8.2632391e-11
7.9311568e-10
1.0791894e-09
1.4416547e-11
3.6222663e-10
1.6556362e-11
3.7646564e-10
1.4315792e-10
9.1247531e-10
1.1758647e-09
1.1585644e-10
8.5042902e-10
1.4232261e-09
9.8673149e-11
8.2141914e-10
1.5190542e-09
9.2360482e-11
8.1158834e-10
1.5640933e-09
8.9683015e-11
8.1065715e-10
1.6293656e-09
8.5283986e-11
8.0229771e-10
1.629006e-09
8.5181128e-11
8.0123049e-10
1.6179212e-09
8.6079889e-11
8.0484791e-10
1.6442225e-09
8.408177e-11
7.9837865e-10
1.6100364e-09
8.5766894e-11
7.9777641e-10
1.5598257e-09
8.8768063e-11
8.0153551e-10
1.5267735e-09
9.1352696e-11
7.9807456e-10
1.1966189e-09
1.2296459e-11
3.4384134e-10
1.4334997e-11
3.5715905e-10
1.6124828e-10
9.2786254e-10
1.3044402e-09
1.300013e-10
8.6099901e-10
1.5925953e-09
1.1029789e-10
8.3008316e-10
1.6969837e-09
1.0310246e-10
8.1943005e-10
1.7466615e-09
1.000303e-10
8.1808094e-10
1.8199651e-09
9.50569e-11
8.0915773e-10
1.8189085e-09
9.4949015e-11
8.0809798e-10
1.8063483e-09
9.5948917e-11
8.1180617e-10
1.8362391e-09
9.3712846e-11
8.0511875e-10
1.7972488e-09
9.5646634e-11
8.048071e-10
1.7407283e-09
9.906435e-11
8.0902191e-10
1.7038822e-09
1.0207818e-10
8.0519404e-10
1.3358946e-09
1.0651988e-11
3.2654231e-10
1.2574864e-11
3.390145e-10
1.8236766e-10
9.4741929e-10
1.4593601e-09
1.4678179e-10
8.7543174e-10
1.7848645e-09
1.242276e-10
8.4214679e-10
1.8992095e-09
1.1603852e-10
8.3047867e-10
1.9542424e-09
1.1255296e-10
8.286012e-10
2.0367338e-09
1.0691345e-10
8.1897365e-10
2.0348429e-09
1.0679125e-10
8.1792699e-10
2.0205932e-09
1.0792595e-10
8.2173911e-10
2.054598e-09
1.0538979e-10
8.1479275e-10
2.010095e-09
1.0757572e-10
8.1486311e-10
1.9463726e-09
1.1145217e-10
8.1964093e-10
1.9052018e-09
1.1486608e-10
8.1536929e-10
1.4937706e-09
9.3436797e-12
3.1022584e-10
1.1150443e-11
3.2191905e-10
2.0683114e-10
9.7254039e-10
1.6439845e-09
1.6641016e-10
8.9500353e-10
2.0030558e-09
1.4061173e-10
8.5872167e-10
2.1288456e-09
1.3129413e-10
8.4579183e-10
2.1900403e-09
1.2736161e-10
8.4325183e-10
2.283033e-09
1.2094957e-10
8.3274816e-10
2.2801296e-09
1.2080474e-10
8.3171969e-10
2.2639445e-09
1.2210834e-10
8.356549e-10
2.3026691e-09
1.1920676e-10
8.2839507e-10
2.2518305e-09
1.2165916e-10
8.2895198e-10
2.1798906e-09
1.2604948e-10
8.3442603e-10
2.1337976e-09
1.2985396e-10
8.296866e-10
1.6725841e-09
8.2784295e-12
2.9480432e-10
9.9748684e-12
3.0577724e-10
2.3504479e-10
1.0047155e-09
1.8546607e-09
1.8918082e-10
9.2108244e-10
2.250657e-09
1.5967616e-10
8.8101905e-10
2.3895331e-09
1.4907014e-10
8.6653135e-10
2.4577279e-09
1.4464432e-10
8.6317564e-10
2.5627459e-09
1.3733692e-10
8.5159613e-10
2.5586053e-09
1.3716139e-10
8.5058974e-10
2.5402016e-09
1.3867009e-10
8.5467401e-10
2.5843454e-09
1.3533206e-10
8.4703177e-10
2.5262175e-09
1.3807392e-10
8.4818829e-10
2.4449013e-09
1.4304571e-10
8.5451391e-10
2.3931693e-09
1.472452e-10
8.4933869e-10
1.8750374e-09
7.3932698e-12
2.802035e-10
8.9874244e-12
2.9050814e-10
2.6750356e-10
1.0454755e-09
2.0927077e-09
2.1546489e-10
9.5506186e-10
2.5316888e-09
1.8171545e-10
9.1028384e-10
2.6854645e-09
1.6963388e-10
8.9389604e-10
2.7615536e-09
1.6465663e-10
8.8955581e-10
2.8803514e-09
1.563123e-10
8.766745e-10
2.8746946e-09
1.5609776e-10
8.756924e-10
2.8537465e-09
1.5785132e-10
8.7995916e-10
2.9041172e-09
1.5399767e-10
8.7185051e-10
2.8375943e-09
1.5705943e-10
8.7372525e-10
2.7455507e-09
1.6269305e-10
8.8107723e-10
2.6874119e-09
1.6730225e-10
8.7555053e-10
2.1042484e-09
6.6449196e-12
2.6635998e-10
8.1451428e-12
2.7604273e-10
3.0479548e-10
1.096378e-09
2.3620455e-09
2.4571047e-10
9.9833087e-10
2.8507816e-09
2.0709096e-10
9.4776066e-10
3.0214633e-09
1.933164e-10
9.2908518e-10
3.1064554e-09
1.8771798e-10
9.2357726e-10
3.2409802e-09
1.7817352e-10
9.0914134e-10
3.2334925e-09
1.7791096e-10
9.0818383e-10
3.2096216e-09
1.7995404e-10
9.1267465e-10
3.2671555e-09
1.7549511e-10
9.0399956e-10
3.190953e-09
1.7891413e-10
9.0671559e-10
3.0866231e-09
1.8530358e-10
9.1528751e-10
3.0212518e-09
1.9034502e-10
9.0953672e-10
2.3638069e-09
6.0030577e-12
2.5321928e-10
7.4171676e-12
2.6232178e-10
3.4760961e-10
1.1590185e-09
2.6671801e-09
2.8044715e-10
1.0522802e-09
3.2132635e-09
2.3623318e-10
9.9469263e-10
3.4030757e-09
2.2051388e-10
9.7329423e-10
3.4981067e-09
2.1421244e-10
9.664204e-10
3.6505421e-09
2.0327967e-10
9.5014737e-10
3.6408195e-09
2.0295897e-10
9.4921269e-10
3.6135833e-09
2.0534249e-10
9.5397808e-10
3.6793807e-09
2.0017574e-10
9.4461894e-10
3.5919915e-09
2.0399619e-10
9.4830459e-10
3.4736657e-09
2.1125051e-10
9.5830998e-10
3.4001174e-09
2.1675301e-10
9.5249383e-10
2.6578395e-09
5.4459767e-12
2.4073405e-10
6.7809696e-12
2.4929396e-10
3.9674602e-10
1.2350654e-09
3.0132861e-09
3.2029382e-10
1.118334e-09
3.6252626e-09
2.696472e-10
1.0523453e-09
3.8366753e-09
2.516922e-10
1.0277359e-09
3.943023e-09
2.4459292e-10
1.0192805e-09
4.1158799e-09
2.3205464e-10
1.0008532e-09
4.1034003e-09
2.3166424e-10
9.9993752e-10
4.0723075e-09
2.3444675e-10
1.0050379e-09
4.1476006e-09
2.2845415e-10
9.948574e-10
4.0473175e-09
2.3272727e-10
9.9964839e-10
3.9130425e-09
2.4097244e-10
1.0113234e-09
3.8302399e-09
2.4697007e-10
1.0056204e-09
2.9910852e-09
4.9577736e-12
2.2886269e-10
6.2198e-12
2.3691436e-10
4.5311214e-10
1.3266973e-09
3.4063081e-09
3.6596922e-10
1.1979962e-09
4.0938239e-09
3.0792075e-10
1.1220453e-09
4.3295829e-09
2.8739412e-10
1.0936761e-09
4.4486839e-09
2.7938783e-10
1.0834028e-09
4.6448463e-09
2.6499283e-10
1.062463e-09
4.6289865e-09
2.6451944e-10
1.0615605e-09
4.5934682e-09
2.6776853e-10
1.0670674e-09
4.6796857e-09
2.6081355e-10
1.0559059e-09
4.5645251e-09
2.6559877e-10
1.061948e-09
4.4120522e-09
2.7497995e-10
1.0755555e-09
4.3187687e-09
2.815114e-10
1.0701541e-09
3.3689821e-09
4.5265231e-12
2.1756866e-10
5.7209702e-12
2.2514332e-10
5.1773702e-10
1.4362603e-09
3.8530711e-09
4.1830512e-10
1.2929027e-09
4.627044e-09
3.5173455e-10
1.2052262e-09
4.8902042e-09
3.2824864e-10
1.172478e-09
5.0236728e-09
3.1921002e-10
1.1601257e-09
5.2464504e-09
3.0266589e-10
1.1362662e-09
5.2264653e-09
3.0209415e-10
1.1353689e-09
5.1858635e-09
3.058881e-10
1.1413666e-09
5.2846607e-09
2.9781259e-10
1.1290385e-09
5.1523194e-09
3.0317966e-10
1.136491e-09
4.9790629e-09
3.1386431e-10
1.1523258e-09
4.8739033e-09
3.2097246e-10
1.1474162e-09
3.7977654e-09
4.1430763e-12
2.0681925e-10
5.2746831e-12
2.1394544e-10
5.9181625e-10
1.5660152e-09
4.3614118e-09
4.7826212e-10
1.4048755e-09
5.2342261e-09
4.0187484e-10
1.3034759e-09
5.5281883e-09
3.7498234e-10
1.2656486e-09
5.6778377e-09
3.6476591e-10
1.2509255e-09
5.9310277e-09
3.4573649e-10
1.2236805e-09
5.9060251e-09
3.4504815e-10
1.2227781e-09
5.8595794e-09
3.4947804e-10
1.2293653e-09
5.9728731e-09
3.4009901e-10
1.2156551e-09
5.8206776e-09
3.4612521e-10
1.2246949e-09
5.6236666e-09
3.583081e-10
1.243091e-09
5.5050456e-09
3.660396e-10
1.2388583e-09
4.2845802e-09
3.8002671e-12
1.9658481e-10
4.8732322e-12
2.0328872e-10
6.7673407e-10
1.7184709e-09
4.9403341e-09
5.4694821e-10
1.535976e-09
5.9260584e-09
4.5924822e-10
1.4185847e-09
6.2546091e-09
4.2843249e-10
1.3748841e-09
6.4224767e-09
4.1687132e-10
1.3574612e-09
6.7104345e-09
3.9497036e-10
1.3262965e-09
6.6793456e-09
3.9414394e-10
1.3253764e-09
6.6261772e-09
3.9931578e-10
1.3326686e-09
6.7561873e-09
3.8842092e-10
1.3173259e-09
6.581034e-09
3.951924e-10
1.3281504e-09
6.3568567e-09
4.0909598e-10
1.3494861e-09
6.2229728e-09
4.1750275e-10
1.3461083e-09
4.8376117e-09
3.4923745e-12
1.8683835e-10
4.5104521e-12
1.9314472e-10
7.7408891e-10
1.8964623e-09
5.6001579e-09
6.2564035e-10
1.6885588e-09
6.71482e-09
5.2489899e-10
1.5525921e-09
7.0821752e-09
4.895614e-10
1.5021129e-09
7.2705482e-09
4.7646844e-10
1.48162e-09
7.598271e-09
4.5124975e-10
1.4459224e-09
7.5598162e-09
4.5026003e-10
1.4449689e-09
7.4989094e-09
4.5629726e-10
1.4531013e-09
7.6482062e-09
4.4363988e-10
1.4358354e-09
7.446493e-09
4.5125414e-10
1.4486653e-09
7.1912309e-09
4.6713172e-10
1.4733696e-09
7.0400372e-09
4.7627007e-10
1.4710192e-09
5.4661763e-09
3.2147516e-12
1.7755513e-10
4.1813311e-12
1.8348729e-10
8.8572416e-10
2.1032324e-09
6.3527087e-09
7.1580952e-10
1.8653276e-09
7.6146153e-09
6.0002886e-10
1.7078363e-09
8.0254699e-09
5.5947943e-10
1.6495431e-09
8.2369158e-09
5.4464257e-10
1.6255638e-09
8.6101379e-09
5.1558969e-10
1.5846285e-09
8.5627862e-09
5.1440708e-10
1.5836224e-09
8.4929669e-09
5.214535e-10
1.5927532e-09
8.6645273e-09
5.0674671e-10
1.573226e-09
8.4320728e-09
5.1531453e-10
1.5883089e-09
8.1412256e-09
5.3345705e-10
1.6168692e-09
7.9703964e-09
5.4338472e-10
1.6157141e-09
6.181052e-09
2.9635686e-12
1.6871218e-10
3.881731e-12
1.7429172e-10
1.0137641e-09
2.3425054e-09
7.2116825e-09
8.1914967e-10
2.0693939e-09
8.6416495e-09
6.8601823e-10
1.8870051e-09
9.1012299e-09
6.3946523e-10
1.8197129e-09
9.3386291e-09
6.2264232e-10
1.791778e-09
9.7639317e-09
5.8915703e-10
1.7447936e-09
9.7058524e-09
5.8774677e-10
1.7437116e-09
9.6257639e-09
5.9596998e-10
1.7540259e-09
9.8230358e-09
5.7888007e-10
1.7318442e-09
9.5549856e-09
5.8852734e-10
1.7494581e-09
9.2233851e-09
6.0926978e-10
1.7824289e-09
9.0302783e-09
6.2004445e-10
1.7826304e-09
6.9945791e-09
2.7356299e-12
1.6028831e-10
3.608192e-12
1.6553528e-10
1.160656e-09
2.6185629e-09
8.1928403e-09
9.3761119e-10
2.3043452e-09
9.814494e-09
7.8445733e-10
2.0931919e-09
1.0328651e-08
7.3098924e-10
2.0155438e-09
1.0595246e-08
7.1190337e-10
1.9831232e-09
1.1080184e-08
6.7329264e-10
1.9291548e-09
1.1009192e-08
6.7161389e-10
1.9279689e-09
1.0917266e-08
6.8120929e-10
1.939683e-09
1.1144242e-08
6.6134795e-10
1.9143896e-09
1.0834961e-08
6.7221761e-10
1.9348489e-09
1.0456655e-08
6.9594585e-10
1.9728638e-09
1.0238242e-08
7.076241e-10
1.9745718e-09
7.9208611e-09
2.528239e-12
1.5226376e-10
3.3577916e-12
1.5719698e-10
1.3292195e-09
2.9363367e-09
9.3142463e-09
1.0734393e-09
2.574322e-09
1.1154506e-08
8.9717718e-10
2.3299637e-09
1.1729715e-08
8.3574142e-10
2.2404033e-09
1.2029153e-08
8.1407603e-10
2.2028945e-09
1.258245e-08
7.6953708e-10
2.1408656e-09
1.2495928e-08
7.6754184e-10
2.1395423e-09
1.2390343e-08
7.7873726e-10
2.1529079e-09
1.2651668e-08
7.5565258e-10
2.1239725e-09
1.229458e-08
7.6790664e-10
2.1476339e-09
1.1862714e-08
7.9506521e-10
2.1914175e-09
1.1615586e-08
8.0770021e-10
2.194759e-09
8.9761207e-09
2.3391001e-12
1.4462001e-10
3.1280373e-12
1.4925716e-10
1.5227029e-09
3.3015105e-09
1.0596675e-08
1.2292183e-09
2.8840917e-09
1.2686336e-08
1.0262833e-09
2.6014304e-09
1.3329751e-08
9.5566384e-10
2.4981722e-09
1.3666087e-08
9.3105724e-10
2.4548901e-09
1.4297708e-08
8.7965926e-10
2.3835515e-09
1.419254e-08
8.7729087e-10
2.3820495e-09
1.4071201e-08
8.9035263e-10
2.3973645e-09
1.4372243e-08
8.6351763e-10
2.3641631e-09
1.3959742e-08
8.7733968e-10
2.3914288e-09
1.3466488e-08
9.08441e-10
2.4418122e-09
1.3186773e-08
9.2208636e-10
2.4468798e-09
1.0178914e-08
2.1662423e-12
1.3733951e-10
2.9167851e-12
1.4169733e-10
1.7448574e-09
3.7206334e-09
1.2064012e-08
1.4079228e-09
3.2391435e-09
1.4438249e-08
1.1741972e-09
2.9123161e-09
1.5157819e-08
1.092987e-09
2.7933022e-09
1.5535602e-08
1.065026e-09
2.743471e-09
1.6256976e-08
1.0056899e-09
2.6613757e-09
1.6129462e-08
1.0028818e-09
2.6596451e-09
1.5989944e-08
1.0181204e-09
2.6772582e-09
1.6336914e-08
9.8692217e-10
2.6390637e-09
1.5860171e-08
1.00252e-09
2.670387e-09
1.5296523e-08
1.0381535e-09
2.7283213e-09
1.4979822e-08
1.0528627e-09
2.7351771e-09
1.1550359e-08
2.0079622e-12
1.3040579e-10
2.7221777e-12
1.3450007e-10
1.9999856e-09
4.2012456e-09
1.3743778e-08
1.6129762e-09
3.6457969e-09
1.6442729e-08
1.343699e-09
3.2680437e-09
1.7247267e-08
1.2502728e-09
3.1309088e-09
1.7671594e-08
1.2184858e-09
3.073648e-09
1.8495855e-08
1.1499631e-09
2.9791238e-09
1.8341597e-08
1.1466375e-09
2.9771048e-09
1.8181107e-08
1.1644142e-09
2.9974245e-09
1.8581181e-08
1.1281418e-09
2.9533894e-09
1.8029989e-08
1.1457518e-09
2.9892847e-09
1.7385637e-08
1.1865957e-09
3.0558598e-09
1.702695e-08
1.2024136e-09
3.0645298e-09
1.3114734e-08
1.8627786e-12
1.2380322e-10
2.5425953e-12
1.2764885e-10
2.2930495e-09
4.7520222e-09
1.5667691e-08
1.848322e-09
4.1113156e-09
1.8737168e-08
1.5379882e-09
3.6748507e-09
1.9636477e-08
1.4304706e-09
3.5168757e-09
2.0113061e-08
1.3943178e-09
3.451183e-09
2.1055256e-08
1.3151655e-09
3.3422978e-09
2.0869076e-08
1.311231e-09
3.3399192e-09
2.0684381e-08
1.3319656e-09
3.3634221e-09
2.1145875e-08
1.2897923e-09
3.3125606e-09
2.0508333e-08
1.3096788e-09
3.3536064e-09
1.977133e-08
1.3565125e-09
3.4300684e-09
1.9364968e-08
1.3734734e-09
3.4405433e-09
1.4899888e-08
1.729397e-12
1.1751693e-10
2.3766175e-12
1.2112794e-10
2.6297764e-09
5.3829481e-09
1.7872161e-08
2.1185033e-09
4.6440412e-09
2.1364586e-08
1.7607425e-09
4.1399006e-09
2.2369423e-08
1.6369669e-09
3.9579597e-09
2.2904624e-08
1.5958366e-09
3.8827005e-09
2.3982151e-08
1.5043785e-09
3.7572205e-09
2.3757741e-08
1.4997268e-09
3.7543965e-09
2.3545073e-08
1.5239127e-09
3.7816414e-09
2.4077726e-08
1.474871e-09
3.7228023e-09
2.3339895e-08
1.4973324e-09
3.7696498e-09
2.2496523e-08
1.5510539e-09
3.8574266e-09
2.2036017e-08
1.5691788e-09
3.869655e-09
1.6937744e-08
1.60668e-12
1.1153278e-10
2.2229925e-12
1.1492244e-10
3.0167644e-09
6.1055279e-09
2.0399047e-08
2.4287509e-09
5.2535715e-09
2.4374341e-08
2.0161893e-09
4.6714277e-09
2.5496486e-08
1.8736518e-09
4.4619265e-09
2.609742e-08
1.826846e-09
4.3758121e-09
2.7330261e-08
1.7211392e-09
4.2311494e-09
2.7060198e-08
1.715643e-09
4.2277767e-09
2.6815217e-08
1.7438555e-09
4.2594214e-09
2.7430257e-08
1.6868198e-09
4.1912549e-09
2.6576029e-08
1.7121936e-09
4.2446413e-09
2.5610525e-08
1.7738367e-09
4.3453739e-09
2.5088527e-08
1.7931282e-09
4.3592466e-09
1.9264885e-08
1.4936246e-12
1.0583726e-10
2.0806125e-12
1.0901812e-10
3.4616157e-09
6.933018e-09
2.329651e-08
2.7850845e-09
5.9509576e-09
2.7823106e-08
2.3091888e-09
5.2789028e-09
2.9075632e-08
2.1449965e-09
5.0376966e-09
2.9750262e-08
2.0917187e-09
4.9392587e-09
3.1161361e-08
1.9695118e-09
4.7724111e-09
3.0836859e-08
1.9630218e-09
4.7683677e-09
3.0554544e-08
1.9959317e-09
4.8051823e-09
3.1264992e-08
1.9295923e-09
4.7261117e-09
3.0275642e-08
1.9582597e-09
4.7868729e-09
2.9169874e-08
2.0290146e-09
4.9024457e-09
2.8578033e-08
2.0494507e-09
4.9177804e-09
2.1923242e-08
1.3893424e-12
1.0041746e-10
1.9484929e-12
1.0340142e-10
3.9730851e-09
7.8806915e-09
2.6620089e-08
3.1944339e-09
6.7489201e-09
3.1776184e-08
2.6453307e-09
5.9732013e-09
3.3173448e-08
2.4561411e-09
5.6955131e-09
3.3930654e-08
2.3954826e-09
5.5830774e-09
3.5546391e-08
2.2541664e-09
5.3905632e-09
3.5157029e-08
2.2465073e-09
5.3857067e-09
3.4831571e-08
2.2848968e-09
5.4285924e-09
3.5652527e-08
2.2077289e-09
5.3367735e-09
3.4506288e-08
2.2401202e-09
5.4058581e-09
3.3239397e-08
2.3213573e-09
5.5384349e-09
3.2568226e-08
2.342884e-09
5.5549572e-09
2.4960884e-08
1.2930439e-12
9.5261056e-11
1.8257554e-12
9.8059351e-11
4.5612681e-09
8.966124e-09
3.0433731e-08
3.6647788e-09
7.6620908e-09
3.630869e-08
3.0310434e-09
6.7668128e-09
3.7866413e-08
2.8129941e-09
6.44714e-09
3.871609e-08
2.7439188e-09
6.3187955e-09
4.0566792e-08
2.5804687e-09
6.0965731e-09
4.0100216e-08
2.5714345e-09
6.0907406e-09
3.9724895e-08
2.6162162e-09
6.1407506e-09
4.0673873e-08
2.5264447e-09
6.0340236e-09
3.9345443e-08
2.5630452e-09
6.1125112e-09
3.7893431e-08
2.6563428e-09
6.2645753e-09
3.7132152e-08
2.6788645e-09
6.2818966e-09
2.8432914e-08
1.2040252e-12
9.0356223e-11
1.7116142e-12
9.2979519e-11
5.2378045e-09
1.0209554e-08
3.4811065e-08
4.2053094e-09
8.7072932e-09
4.1507007e-08
3.4737206e-09
7.6740762e-09
4.3242355e-08
3.2223482e-09
7.3060882e-09
4.4195522e-08
3.1436746e-09
7.1596503e-09
4.6316064e-08
2.9545842e-09
6.9030222e-09
4.5757637e-08
2.9439332e-09
6.8960355e-09
4.5324683e-08
2.9961717e-09
6.9543973e-09
4.6421995e-08
2.8917293e-09
6.8302283e-09
4.4881954e-08
2.9330866e-09
6.919355e-09
4.3217214e-08
3.0402621e-09
7.093752e-09
4.2353578e-08
3.0636308e-09
7.1113447e-09
3.240251e-08
1.1216566e-12
8.5691634e-11
1.6053638e-12
8.8150045e-11
6.0161112e-09
1.163429e-08
3.9836884e-08
4.8266113e-09
9.9038718e-09
4.7470494e-08
3.9818671e-09
8.711448e-09
4.9402144e-08
3.6920126e-09
8.2878806e-09
5.0471063e-08
3.6023936e-09
8.1208417e-09
5.2901543e-08
3.3835972e-09
7.824342e-09
5.223393e-08
3.3710457e-09
7.8160237e-09
5.1734366e-08
3.4319829e-09
7.884158e-09
5.3003565e-08
3.3104627e-09
7.7395683e-09
5.1217712e-08
3.3571939e-09
7.8407677e-09
4.930849e-08
3.4803408e-09
8.04075e-09
4.8328582e-08
3.5043418e-09
8.0579081e-09
3.6942097e-08
1.0453732e-12
8.1256433e-11
1.5063689e-12
8.3559537e-11
6.9116564e-09
1.3267192e-08
4.5608831e-08
5.5408776e-09
1.1274071e-08
5.4313429e-08
4.5652657e-09
9.8978075e-09
5.6461624e-08
4.2309659e-09
9.4103695e-09
5.7659935e-08
4.1288655e-09
9.2198282e-09
6.0446444e-08
3.8756487e-09
8.8770773e-09
5.9649131e-08
3.8608638e-09
8.8672918e-09
5.9072601e-08
3.9319487e-09
8.9468259e-09
6.0540987e-08
3.7905475e-09
8.7782937e-09
5.8469555e-08
3.8433481e-09
8.8932642e-09
5.6279348e-08
3.984878e-09
9.1225317e-09
5.516735e-08
4.0092133e-09
9.1383118e-09
4.2134705e-08
9.7466708e-13
7.7040208e-11
1.4140563e-12
7.9197072e-11
7.9422759e-09
1.5139235e-08
5.2239363e-08
6.3621545e-09
1.2843469e-08
6.2167245e-08
5.2351698e-09
1.125479e-08
6.4553819e-08
4.8495315e-09
1.0694106e-08
6.5896713e-08
4.7331985e-09
1.0476661e-08
6.9092215e-08
4.440094e-09
1.0080173e-08
6.8140916e-08
4.4226856e-09
1.0068922e-08
6.7475509e-08
4.5056082e-09
1.016168e-08
6.9174706e-08
4.3410617e-09
9.9650051e-09
6.6771446e-08
4.4007153e-09
1.0095835e-08
6.4258317e-08
4.5634063e-09
1.0358554e-08
6.2996239e-08
4.5876742e-09
1.037169e-08
4.8075512e-08
9.0908026e-13
7.3032971e-11
1.3279071e-12
7.5052182e-11
9.1285364e-09
1.7286203e-08
5.9857997e-08
7.3066234e-09
1.4641468e-08
7.1183095e-08
6.0045254e-09
1.2807121e-08
7.3831444e-08
5.5595804e-09
1.2162799e-08
7.5335883e-08
5.4270181e-09
1.1914367e-08