/*--------------------------------*- C++ -*----------------------------------*\
  =========                 |
  \\      /  F ield         | OpenFOAM: The Open Source CFD Toolbox
   \\    /   O peration     | Website:  https://openfoam.org
    \\  /    A nd           | Version:  7
     \\/     M anipulation  |
\*---------------------------------------------------------------------------*/
FoamFile
{
    version     2.0;
    format      ascii;
    class       volScalarField;
    location    "2000/fluid";
    object      epsilon;
}
// * * * * * * * * * * * * * * * * * * * * * * * * * * * * * * * * * * * * * //

dimensions      [0 2 -3 0 0 0 0];

internalField   nonuniform List<scalar> 
13296
(
0.054699559
0.1533126
0.15331292
0.15331343
0.1533147
0.15331772
0.15332016
0.15331894
0.15331636
0.15331491
0.15331556
0.15331664
0.1533159
0.15331435
0.15331325
0.15331353
0.15331457
0.15331453
0.15331369
0.15331281
0.15331291
0.15331389
0.1533141
0.15331354
0.15331272
0.1533127
0.1533136
0.15331394
0.15331354
0.15331272
0.15331255
0.15331335
0.15331378
0.15331349
0.15331269
0.15331251
0.15331332
0.15331377
0.15331348
0.15331268
0.15331253
0.15331335
0.1533138
0.15331352
0.15331271
0.15331249
0.15331328
0.15331373
0.15331344
0.15331264
0.15331251
0.15331339
0.15331379
0.1533134
0.15331261
0.15331264
0.15331361
0.15331394
0.15331343
0.15331264
0.1533128
0.15331388
0.15331421
0.15331381
0.1533132
0.15331289
0.011753034
0.023561558
0.023555835
0.023533058
0.023478444
0.023512829
0.023668374
0.023784134
0.023745881
0.023619472
0.023583662
0.02368896
0.023779003
0.023734942
0.023607643
0.023568481
0.023667028
0.023754863
0.023715621
0.023593682
0.02355765
0.023656205
0.023744912
0.023708917
0.023589869
0.023556154
0.023655698
0.023745185
0.023710021
0.02358912
0.023552498
0.023647533
0.023734927
0.023701145
0.023582401
0.023548092
0.02364443
0.023732723
0.023699797
0.023582453
0.023549809
0.023647996
0.023737053
0.023703479
0.023583466
0.023547437
0.023641694
0.023728612
0.02369494
0.02357698
0.023542547
0.023638338
0.023725851
0.02369182
0.023575241
0.023542017
0.023639855
0.023727901
0.023692655
0.023575339
0.023542687
0.023645903
0.02374913
0.02374208
0.023656949
0.023616719
0.0039680417
0.0064941808
0.0064966883
0.0064752059
0.0063939805
0.0064235236
0.0066182448
0.0067720101
0.0067244277
0.0065493569
0.0064983396
0.0066403109
0.0067653803
0.0067109037
0.0065350491
0.0064825299
0.0066171591
0.0067379864
0.0066881164
0.0065197136
0.0064713177
0.0066058609
0.0067267851
0.0066799237
0.0065154905
0.0064699416
0.0066058209
0.0067274338
0.0066813878
0.0065146079
0.0064661457
0.006596753
0.0067155205
0.006670999
0.0065072511
0.0064615498
0.006593447
0.0067130285
0.0066694228
0.0065072423
0.0064634078
0.0065975804
0.0067182324
0.0066738321
0.0065085022
0.0064608503
0.0065903452
0.0067083041
0.0066640267
0.0065015084
0.0064557045
0.0065865571
0.0067050877
0.0066605584
0.0064998345
0.0064550835
0.0065881169
0.0067074786
0.0066616547
0.0064999377
0.0064549726
0.0065925927
0.0067280779
0.0067152302
0.006595174
0.0065531471
0.0017915284
0.0025126775
0.002534801
0.0025268239
0.0024205482
0.0024373139
0.0026606
0.002835497
0.0027855649
0.0025622052
0.0024962022
0.0026758575
0.0028259641
0.0027672691
0.0025506689
0.0024827693
0.0026547117
0.002798358
0.0027428203
0.0025362443
0.0024739173
0.0026449399
0.0027873997
0.0027345027
0.0025317455
0.0024730167
0.0026456606
0.0027887227
0.0027362125
0.002531014
0.0024697901
0.002636801
0.002776428
0.0027253955
0.0025243668
0.0024661832
0.0026339718
0.002773981
0.0027237346
0.0025242017
0.0024678068
0.0026382348
0.0027796489
0.0027285372
0.0025256463
0.0024655257
0.0026308406
0.0027692057
0.0027186129
0.0025195659
0.0024614462
0.0026273003
0.0027658662
0.0027153447
0.0025182921
0.0024609968
0.0026287647
0.0027683208
0.002716764
0.0025187806
0.0024601126
0.0026292343
0.0027806666
0.0027592946
0.0026005943
0.0025671971
0.0011309059
0.0013380516
0.0013388932
0.0013198045
0.0013119354
0.0012349208
0.0016179815
0.0016678775
0.0016361587
0.0015463867
0.0012884945
0.0016159338
0.0016473576
0.0016119414
0.001511831
0.0012772391
0.0015834776
0.0016124021
0.0015810862
0.0014827169
0.0012701508
0.0015704615
0.0015992886
0.0015705115
0.0014723872
0.001270264
0.0015728927
0.0016020889
0.0015743251
0.0014701572
0.0012675163
0.0015583944
0.0015861712
0.0015595891
0.0014592634
0.0012643635
0.0015551119
0.0015832464
0.0015570837
0.0014586032
0.0012660911
0.0015623657
0.0015910752
0.001564527
0.0014615623
0.0012636549
0.0015498535
0.0015772803
0.0015508738
0.0014532807
0.0012595239
0.0015453304
0.0015730223
0.0015460728
0.0014529985
0.0012586296
0.0015481439
0.0015762889
0.001548197
0.0014564847
0.0012559831
0.0015366768
0.001569944
0.0015528761
0.0014655758
0.0013045335
0.00078759321
0.0011000621
0.00094141328
0.0012182122
0.0012403259
0.0012602614
0.0012394409
0.001221341
0.0012239838
0.0012234474
0.0011850327
0.0011846175
0.001216831
0.0011718591
0.0011697802
0.0012208081
0.0011758307
0.0011722311
0.0012119887
0.0011571826
0.001154458
0.0012092555
0.0011539611
0.0011517984
0.0012147087
0.0011630945
0.0011601144
0.0012057028
0.0011472092
0.0011448683
0.0012005394
0.0011428486
0.0011408737
0.0012006595
0.0011463588
0.0011449804
0.001186257
0.0011227025
0.0011334523
0.0010351891
0.00057043765
0.00079107096
0.00066500897
0.00087948906
0.00091618449
0.00095725606
0.00090342342
0.00090091342
0.00093000917
0.00089158944
0.00087193391
0.00089557245
0.0008869016
0.00086157369
0.00088279017
0.00089227722
0.00086558196
0.00088570069
0.0008840602
0.00085015362
0.00086981059
0.00088135883
0.00084745279
0.00086725902
0.00088704456
0.00085517072
0.00087508323
0.00087781747
0.00084181399
0.00086112831
0.00087186785
0.00083789677
0.00085710363
0.00087111011
0.00084036844
0.00086062812
0.00085197084
0.00081780915
0.00083856172
0.00071704155
0.0004283962
0.00056335933
0.00049166781
0.00060880622
0.0007132762
0.00075822591
0.0006385858
0.00069562951
0.00074555508
0.00063357597
0.00066995766
0.00071886727
0.00063182205
0.00066108692
0.00070952957
0.00063860754
0.00066456028
0.00071500285
0.0006320823
0.00065174277
0.00070106045
0.00062955185
0.00064946388
0.00069830705
0.00063500219
0.00065600253
0.00070639878
0.00062638796
0.00064474281
0.00069267801
0.00061973597
0.00064126055
0.00068698314
0.00061771428
0.00064331514
0.00068870861
0.00059532047
0.00062434469
0.00065395901
0.00049349076
0.00033051931
0.00040165878
0.00037490209
0.00042521589
0.00057800269
0.00062089511
0.00045350337
0.000555917
0.00062191834
0.00045200834
0.00053207209
0.00060309324
0.00045182817
0.00052404808
0.00059731258
0.00045876019
0.00052688439
0.00060565149
0.00045359748
0.00051605353
0.00059360919
0.00045137312
0.00051411984
0.00059059748
0.00045626881
0.00051969848
0.00059909745
0.00044864959
0.00051011738
0.00058535096
0.0004422176
0.00050708817
0.00057769254
0.00043976281
0.00050896971
0.00057743821
0.00041779179
0.00049377383
0.00053137206
0.00034055521
0.00026035298
0.00028843352
0.00029258875
0.00031089324
0.00048302713
0.00052384342
0.00033148868
0.00045693974
0.00053839896
0.00033005046
0.00043428926
0.00052759133
0.00033003003
0.00042685161
0.00052547313
0.00033606063
0.00042906147
0.00053696769
0.00033168479
0.00041973924
0.00052667931
0.00032982854
0.0004180843
0.00052334564
0.00033403738
0.00042289326
0.00053242079
0.00032749603
0.00041464121
0.00051835899
0.00032199945
0.00041204484
0.0005084705
0.00031989074
0.00041388436
0.00050610595
0.00030094126
0.00040190972
0.00044864146
0.00023712726
0.00020854205
0.00020951238
0.00023256632
0.00024375403
0.00041371646
0.00045588663
0.00025412395
0.0003848857
0.00048359424
0.00025051544
0.00036314237
0.00048049953
0.00024975036
0.00035611955
0.0004819801
0.00025433621
0.0003577716
0.00049686838
0.00025027985
0.0003495791
0.00048814645
0.00024879132
0.00034814976
0.00048442077
0.00025231613
0.00035234494
0.00049425818
0.00024676798
0.00034513898
0.00047957692
0.00024254478
0.00034295772
0.00046722148
0.00024122739
0.0003447999
0.00046268756
0.00022642404
0.00033538498
0.0003934209
0.00016747747
0.0001693999
0.00015451301
0.00018767198
0.00020737651
0.00036267445
0.0004102634
0.00020745813
0.00033158262
0.00045110919
0.000200438
0.00031052003
0.00045556565
0.00019843316
0.0003037741
0.00046067884
0.00020139148
0.00030493729
0.00047932112
0.00019732051
0.00029757283
0.00047197402
0.00019616323
0.000296327
0.00046776687
0.0001990831
0.00030003425
0.00047860083
0.00019436211
0.00029364747
0.00046294441
0.00019148587
0.00029185094
0.00044781309
0.0001911552
0.0002937331
0.00044099083
0.00018066924
0.00028627698
0.00035872953
0.00012056462
0.00013928009
0.00011606829
0.00015341193
0.00019106284
0.00032474611
0.00038263206
0.0001817305
0.00029186302
0.00043725678
0.00017084767
0.00027133994
0.00044941862
0.00016733989
0.0002647375
0.00045832868
0.00016867603
0.00026545929
0.00048124839
0.00016434502
0.00025867672
0.00047511254
0.00016346875
0.00025758123
0.00047030917
0.00016589463
0.00026090234
0.00048243155
0.00016180636
0.00025515128
0.00046538121
0.00016021925
0.00025371471
0.00044704477
0.000160938
0.00025567752
0.00043773146
0.00015448896
0.00024970549
0.00034041431
8.8830346e-05
0.00011574483
8.9030642e-05
0.00012683178
0.00018866792
0.00029669262
0.00037037066
0.00017039174
0.00026237539
0.00044023635
0.00015576165
0.00024232897
0.00046058577
0.00015061513
0.00023574094
0.00047362201
0.00015040257
0.00023604212
0.00050154483
0.0001456137
0.00022963209
0.00049649421
0.00014496776
0.00022866083
0.00049094944
0.00014701587
0.00023167921
0.00050472098
0.00014336683
0.00022641258
0.00048577994
0.00014296882
0.00022532252
0.00046365814
0.00014475025
0.00022741585
0.00045154163
0.0001417522
0.00022250756
0.00033624075
6.7179444e-05
9.7111194e-05
6.9837754e-05
0.00010591828
0.00019560861
0.00027647257
0.00037218377
0.00016928025
0.00024093062
0.00045965214
0.00015106199
0.00022123465
0.00048902719
0.00014439868
0.00021462516
0.00050670318
0.00014277105
0.00021453323
0.00054058717
0.00013734685
0.00020831035
0.00053653148
0.00013688642
0.00020744241
0.00053006446
0.00013866539
0.00021022825
0.00054592727
0.00013527598
0.00020531739
0.00052450302
0.00013597062
0.00020457024
0.00049784099
0.00013876653
0.0002068238
0.00048248324
0.00013837101
0.00020254719
0.00034532905
5.221461e-05
8.2187939e-05
5.6043566e-05
8.9262522e-05
0.00020923255
0.00026277141
0.00038795237
0.00017582937
0.00022607403
0.00049628257
0.00015401941
0.0002065102
0.00053590263
0.00014594348
0.00019983137
0.0005589183
0.00014318453
0.00019943465
0.00059997786
0.00013706426
0.00019328206
0.0005968328
0.00013673096
0.00019249015
0.00058922543
0.00013836421
0.00019511714
0.00060771056
0.00013505487
0.0001904408
0.00058309667
0.00013662054
0.0001899723
0.00055096414
0.00014027268
0.00019236786
0.00053179385
0.00014180774
0.00018840557
0.00036786333
4.169121e-05
7.0109387e-05
4.5975012e-05
7.584978e-05
0.00022856317
0.00025473271
0.0004186016
0.00018852815
0.00021683829
0.00055196654
0.00016297105
0.00019712421
0.00060345215
0.00015349637
0.00019029991
0.00063267498
0.00014979984
0.00018965458
0.00068037163
0.00014292144
0.00018346675
0.00067531655
0.00014266537
0.00018272673
0.0006668074
0.00014426213
0.00018526081
0.00068770202
0.00014087236
0.00018071032
0.00065950007
0.00014312413
0.00018046554
0.00062385638
0.00014755065
0.0001830086
0.00060173462
0.00015055141
0.00017913592
0.00040494461
3.4133073e-05
6.0239345e-05
3.8490284e-05
6.4940125e-05
0.00025343947
0.00025181249
0.00046593992
0.00020656643
0.00021259232
0.00062950294
0.00017696974
0.00019239909
0.00069400738
0.00016603697
0.00018533172
0.00072544296
0.00016151229
0.00018446427
0.00077763971
0.00015377784
0.00017812989
0.00077012236
0.0001535619
0.00017742204
0.00076052381
0.00015521229
0.00017992102
0.00078430169
0.00015160148
0.00017539772
0.00075184492
0.00015442698
0.00017534433
0.00071256916
0.00015960404
0.00017805905
0.00068903561
0.00016376247
0.00017411229
0.00045847389
2.857099e-05
5.2102855e-05
3.2811716e-05
5.598494e-05
0.00028371312
0.00025369321
0.00053267985
0.00022960653
0.00021294796
0.00073273543
0.00019555235
0.0001919044
0.00080343163
0.00018304178
0.00018447256
0.00083595651
0.00017773553
0.00018338747
0.00089362825
0.00016901745
0.00017678984
0.00088329594
0.0001688136
0.00017609727
0.00087239946
0.00017059478
0.00017861411
0.00089959565
0.00016663487
0.00017402503
0.00086211594
0.00016997448
0.00017414742
0.00081845375
0.00017592226
0.00017707054
0.00079314018
0.00018104453
0.00017293481
0.00053122178
2.436936e-05
4.5340577e-05
2.8409373e-05
4.8571667e-05
0.00031956494
0.00026022916
0.00062247393
0.00025763908
0.00021770082
0.0008606285
0.00021859049
0.00019538154
0.00093261285
0.00020433044
0.00018744518
0.00096656191
0.00019824198
0.00018613183
0.0010307615
0.0001883856
0.00017914793
0.0010171616
0.00018817179
0.00017845547
0.001004732
0.00019015341
0.00018104067
0.001035956
0.00018572192
0.00017629512
0.00099256738
0.00018955434
0.00017658797
0.00094369713
0.00019632764
0.00017976712
0.00091623015
0.0002023005
0.00017537212
0.00062417407
2.1110315e-05
3.9677583e-05
2.4921107e-05
4.2386364e-05
0.00036141975
0.00027141438
0.00073997853
0.00029089498
0.00022677669
0.0010104819
0.00024619666
0.00020270521
0.0010841679
0.00022996737
0.00019410759
0.001119902
0.00022305962
0.00019254363
0.0011917914
0.00021188313
0.0001850423
0.0011743669
0.00021164096
0.00018433576
0.0011601366
0.00021388973
0.00018703919
0.0011960864
0.00020886351
0.00018204592
0.0011457662
0.00021319564
0.00018251142
0.0010907757
0.00022087805
0.00018600399
0.0010607629
0.00022764382
0.00018131136
0.00073326563
1.8517485e-05
3.4901418e-05
2.2098162e-05
3.7187619e-05
0.00040990195
0.00028736599
0.00089042022
0.00032979486
0.00024020759
0.0011853715
0.00027866704
0.00021385875
0.0012610668
0.00026020124
0.00020442577
0.0012989735
0.00025240769
0.00020257894
0.0013798548
0.0002397002
0.00019441849
0.0013579359
0.00023941316
0.0001936841
0.0013415988
0.00024199666
0.00019655654
0.0013830763
0.00023624626
0.00019122125
0.0013246433
0.00024110647
0.00019186781
0.0012625062
0.00024980728
0.00019574051
0.0012295203
0.00025734707
0.00019072855
0.00086068288
1.6406351e-05
3.0846396e-05
1.9768386e-05
3.2788014e-05
0.0004658163
0.00030831035
0.0010683599
0.0003749222
0.00025812527
0.0013887558
0.0003164493
0.00022891954
0.0014667476
0.00029543007
0.00021845756
0.0015071478
0.00028665889
0.00021628645
0.0015985399
0.00027217695
0.00020731195
0.0015713318
0.00027182908
0.00020653585
0.0015525367
0.00027481906
0.0002096304
0.0016004652
0.00026820368
0.00020385331
0.0015325542
0.00027363755
0.00020469497
0.0014621056
0.00028349074
0.00020902413
0.0014256079
0.00029181337
0.00020368049
0.0010088532
1.4652125e-05
2.7382202e-05
1.7811451e-05
2.9040766e-05
0.00053014371
0.00033457477
0.0012742442
0.00042701247
0.00028075793
0.0016245644
0.00036012718
0.00024805205
0.0017051291
0.00033618369
0.00023634456
0.0017483009
0.00032631969
0.00023379884
0.0018519639
0.00030978272
0.00022383889
0.0018185305
0.00030935755
0.0002230068
0.0017968729
0.00031283279
0.00022638019
0.0018523177
0.00030519554
0.00022005372
0.0017733497
0.0003112634
0.00022110982
0.001693217
0.00032242822
0.00022598222
0.0016526649
0.00033156282
0.00022029924
0.0011805118
1.316903e-05
2.440552e-05
1.6142201e-05
2.5829956e-05
0.00060404956
0.00036659752
0.0015118838
0.00048695374
0.00030843166
0.0018972909
0.00041041686
0.00027150657
0.0019806989
0.00038311818
0.00025831021
0.0020269551
0.00037202311
0.00025533021
0.0021448138
0.00035310772
0.00024419332
0.0021041038
0.00035258736
0.0002432901
0.0020791121
0.00035663639
0.00024700414
0.0021433089
0.0003477996
0.00024001031
0.0020514517
0.00035457548
0.00024130545
0.0019600394
0.0003672382
0.00024681984
0.0019148861
0.00037722944
0.00024079093
0.0013787677
1.1896975e-05
2.1833812e-05
1.4699486e-05
2.3063326e-05
0.00068889943
0.00040493736
0.0017856629
0.00055579557
0.00034157563
0.0022120962
0.00046817147
0.00029962197
0.002298612
0.00043701865
0.00028466174
0.002348304
0.00042453034
0.00028117763
0.0024824982
0.00040286357
0.00026864821
0.0024332504
0.00040222799
0.00026765742
0.0024043698
0.00040695171
0.0002717805
0.002478778
0.00039671215
0.00026398821
0.0023718808
0.00040428358
0.00026555248
0.0022674767
0.00041866033
0.00027182131
0.0022170863
0.00042956529
0.00026543814
0.0016071766
1.0792942e-05
1.9600664e-05
1.3438656e-05
2.0666897e-05
0.0007862789
0.00045028616
0.0021006444
0.00063476446
0.00038073012
0.0025749246
0.00053439202
0.00033283138
0.0026648021
0.00049880844
0.00031579513
0.0027183225
0.00048473896
0.00031172596
0.0028713364
0.00045989037
0.00029755953
0.0028120229
0.00045911665
0.00029646306
0.0027786437
0.00046463109
0.00030107178
0.0028648843
0.00045275483
0.00029233376
0.0027405232
0.00046122339
0.00029420317
0.0026211642
0.00047756382
0.00030135457
0.0025648012
0.00048945004
0.00029460464
0.001869821
9.8254112e-06
1.7652262e-05
1.232652e-05
1.8580931e-05
0.00089798637
0.00050387834
0.0024626917
0.00072528484
0.00042655669
0.0029926336
0.00061024328
0.00037167002
0.0030861066
0.00056956321
0.00035220209
0.0031438914
0.00055369619
0.00034745474
0.0033186016
0.00052516789
0.00033137238
0.0032474499
0.00052422971
0.00033015005
0.003208863
0.00053066883
0.00033533092
0.0033088207
0.00051688532
0.00032548029
0.0031641782
0.00052636876
0.0003276975
0.003027585
0.00054496057
0.00033587752
0.0029644027
0.00055790473
0.00032874205
0.002171399
8.9707507e-06
1.5944734e-05
1.1337929e-05
1.6756857e-05
0.0010260612
0.00056695283
0.002878596
0.00082900514
0.00047985053
0.0034731401
0.00069707432
0.00041678501
0.003570409
0.00065052947
0.00039447887
0.0036329383
0.00063261658
0.00038894678
0.0038326704
0.0005998291
0.00037062773
0.0037476185
0.00059869602
0.00036925682
0.0037030006
0.00060621492
0.00037510827
0.0038188638
0.00059021073
0.00036395472
0.0036506677
0.0006008473
0.0003665707
0.0034942006
0.00062202235
0.00037594715
0.0034232275
0.0006361094
0.00036839797
0.0025173218
8.2108285e-06
1.4442058e-05
1.0453469e-05
1.5154933e-05
0.0011728729
0.000640599
0.0033562199
0.00094782909
0.00054155494
0.0040255864
0.0007964433
0.00046894686
0.0041267993
0.00074314723
0.00044333824
0.0041945979
0.00072290012
0.00043689708
0.0044231915
0.00068518724
0.00041597433
0.0043218367
0.00068382308
0.0004144287
0.0042702328
0.00069260231
0.0004210636
0.0044045409
0.00067401478
0.0004083894
0.0042089923
0.00068595762
0.0004114614
0.0040296
0.00071010191
0.00042222895
0.0039497254
0.00072542432
0.00041422555
0.0029138219
7.5314426e-06
1.3114487e-05
9.6578655e-06
1.3742435e-05
0.0013411646
0.00072613121
0.0039046685
0.0010839525
0.00061277837
0.0046605288
0.00091014697
0.00052906325
0.0047657576
0.00084907576
0.00049962037
0.0048393963
0.00082616362
0.00049212668
0.0051012789
0.00078275987
0.00046818047
0.0049808174
0.00078112205
0.00046642993
0.004921121
0.0007913717
0.0004739782
0.0050768186
0.00076978006
0.00045953316
0.0048495089
0.00078319992
0.00046312491
0.0046436689
0.0008107543
0.00047550466
0.0045536249
0.00082741499
0.00046699492
0.0033680751
6.921255e-06
1.1937314e-05
8.938901e-06
1.2492287e-05
0.0015341043
0.00082510977
0.0045344254
0.0012399061
0.00069481449
0.0053901529
0.0010402549
0.00059819509
0.0054993636
0.00097022222
0.00056430456
0.0055794569
0.00094427433
0.00055559868
0.0058797328
0.00089429545
0.00052814689
0.0057368891
0.00089233401
0.0005261565
0.0056678188
0.00090429871
0.00053476813
0.0058483198
0.00087921406
0.00051826379
0.0055841333
0.00089430415
0.00052244679
0.0053477824
0.00092577065
0.00053668925
0.0052461235
0.00094388119
0.00052760929
0.0038882483
6.3710566e-06
1.0889908e-05
8.2866426e-06
1.1381917e-05
0.0017553452
0.00093937218
0.0052575485
0.0014186051
0.0007891659
0.0062285184
0.0011891488
0.00067757518
0.0063415361
0.0011087871
0.00063853197
0.0064287406
0.0010793831
0.00062843477
0.0067732912
0.0010218056
0.00059692226
0.0066042374
0.0010194619
0.00059465146
0.0065243093
0.0010334266
0.00060449999
0.0067335707
0.0010042804
0.00058560304
0.0064265724
0.0010212603
0.00059045772
0.0061550257
0.0010572155
0.00060684856
0.0060401061
0.0010768903
0.00059711978
0.0044839214
5.8732574e-06
9.9549443e-06
7.6928892e-06
1.0392393e-05
0.0020090972
0.0010710596
0.00608818
0.0016234066
0.00089757193
0.0071918432
0.0013595641
0.00076862908
0.0073083086
0.0012673045
0.0007236259
0.0074033193
0.0012339646
0.000711935
0.0077989205
0.0011676028
0.00067572159
0.007599181
0.0011648079
0.00067312321
0.007506677
0.0011811048
0.00068440969
0.0077492851
0.0011472357
0.00066273448
0.0073925891
0.0011663548
0.00066835128
0.0070804478
0.0012074626
0.00068721756
0.0069503938
0.001228816
0.00067674095
0.0051661015
5.421524e-06
9.1178225e-06
7.1507844e-06
9.5078079e-06
0.0023002105
0.0012226511
0.0070426816
0.0018581759
0.0010220447
0.0082987403
0.0015546527
0.00087300517
0.008418124
0.0014486886
0.00082111541
0.0085216895
0.0014108638
0.00080760115
0.0089761477
0.0013343443
0.00076594834
0.0087404892
0.0013310174
0.00076296756
0.0086334208
0.0013500337
0.00077592494
0.0089146906
0.0013106721
0.00075102537
0.0085003084
0.0013322138
0.00075750695
0.008141327
0.0013792389
0.00077922466
0.0079939652
0.0014023831
0.00076787461
0.0059473953
5.0105128e-06
8.3661673e-06
6.6545361e-06
8.7147142e-06
0.0026342729
0.0013970139
0.0081398215
0.0021273627
0.0011649103
0.0095707082
0.001778043
0.00099261017
0.0096921272
0.0016562884
0.00093276687
0.0098050455
0.0016133516
0.00091716575
0.010327437
0.0015250834
0.00086922268
0.010049728
0.0015211292
0.00086579615
0.0099257796
0.0015433165
0.00088069345
0.010251897
0.0014975668
0.00085205426
0.0097705136
0.0015218522
0.0008595176
0.0093574659
0.0015756756
0.00088451911
0.0091903796
0.0016007158
0.00087213031
0.0068424204
4.6356738e-06
7.6894397e-06
6.1992046e-06
8.0016877e-06
0.003017722
0.0015974603
0.0094012587
0.0024360885
0.0013288456
0.011032732
0.002033908
0.0011296424
0.011154836
0.001893953
0.0010606171
0.011277868
0.0018451872
0.0010426284
0.011878554
0.0017433257
0.0009874057
0.011551629
0.0017386319
0.00098345825
0.011408135
0.001764518
0.0010006113
0.011786255
0.0017113359
0.00096762896
0.011227109
0.0017387287
0.00097620444
0.010751758
0.0018003659
0.0010049881
0.010562204
0.0018274085
0.00099134901
0.007867916
4.2931008e-06
7.0786278e-06
5.780541e-06
7.358979e-06
0.0034579921
0.0018278166
0.010851978
0.0027902486
0.0015169324
0.012713472
0.0023270466
0.0012866261
0.012834439
0.0021661027
0.0012069953
0.012968354
0.002110689
0.0011862786
0.013659236
0.0019930955
0.0011226305
0.013274734
0.0019875305
0.001118075
0.013108614
0.0020177307
0.0011378498
0.013547001
0.0019559014
0.0010998257
0.012897625
0.0019868134
0.0011096591
0.012350466
0.0020574326
0.0011427961
0.012135334
0.0020865836
0.0011276522
0.0090428462
3.9794181e-06
6.5259987e-06
5.3948642e-06
6.7782341e-06
0.00396361
0.002092476
0.012520895
0.0031966273
0.001732718
0.014645943
0.0026629686
0.0014664517
0.014763349
0.0024778148
0.0013745768
0.014908916
0.0024148187
0.0013507457
0.015703697
0.0022790191
0.0012773514
0.015251862
0.0022724283
0.0012720864
0.015059568
0.0023076585
0.0012949071
0.015567756
0.0022357731
0.0012510341
0.014813785
0.0022706731
0.0012622917
0.014183945
0.0023516182
0.0013004375
0.013939703
0.0023829665
0.0012834783
0.010389151
3.6916906e-06
6.0248856e-06
5.0389644e-06
6.252264e-06
0.0045444096
0.0023964961
0.014441459
0.0036630401
0.001980279
0.016868305
0.0030480146
0.0016724491
0.016979057
0.0028349342
0.0015664448
0.017137013
0.0027632859
0.0015390572
0.018051401
0.0026064203
0.0014543945
0.017520909
0.0025986229
0.0014483024
0.017298325
0.0026397151
0.0014746593
0.017887369
0.0025561352
0.0014240036
0.017012034
0.0025955467
0.0014368668
0.016286811
0.0026883627
0.0014807712
0.016009436
0.0027219761
0.0014616287
0.011932082
3.4273522e-06
5.5695205e-06
4.7100264e-06
5.774862e-06
0.0052117415
0.0027457087
0.016652037
0.0041984907
0.0022642959
0.019424574
0.0034894735
0.0019084401
0.019524479
0.0032441726
0.0017861367
0.019695434
0.0031626598
0.0017546971
0.020747728
0.0029814063
0.0016570051
0.020125035
0.0029721875
0.0016499479
0.019867347
0.0030201196
0.0016804132
0.020550247
0.0029229277
0.0016218872
0.019533897
0.0029674422
0.0016365574
0.018698696
0.0030739085
0.0016870813
0.018383611
0.0031098287
0.0016653197
0.013700634
3.1841494e-06
5.154895e-06
4.4055694e-06
5.3406504e-06
0.0059786819
0.0031468399
0.019196769
0.0048133454
0.0025901603
0.02236519
0.0039957227
0.0021788207
0.022448738
0.0037132392
0.0020377193
0.022633228
0.0036204786
0.0020016649
0.023844475
0.0034109867
0.0018889048
0.023113896
0.0034000943
0.001880721
0.022815569
0.0034560065
0.0019159625
0.023607256
0.0033429721
0.0018482988
0.022427272
0.0033932583
0.0018650038
0.021465303
0.0035154238
0.0019231394
0.021107321
0.003553656
0.0018982368
0.015728097
2.960094e-06
4.7766464e-06
4.1233979e-06
4.9449515e-06
0.0068602968
0.0036076465
0.022126527
0.0055195341
0.0029640869
0.025748091
0.0045763949
0.0024886523
0.025808575
0.0042509955
0.0023258661
0.026007017
0.0041454084
0.0022845536
0.027401406
0.0039032164
0.0021543628
0.026544656
0.0038903545
0.0021448659
0.026199286
0.003955576
0.0021856582
0.027117066
0.0038241032
0.0021073869
0.025747199
0.0038809168
0.0021263846
0.024639114
0.0040211402
0.0021932731
0.024232347
0.0040616408
0.0021646038
0.018052687
2.7534255e-06
4.4309617e-06
3.8615607e-06
4.5836839e-06
0.0078739366
0.0041370674
0.025500189
0.0063307906
0.0033932342
0.029640295
0.0052425674
0.0028437459
0.029669286
0.0048676278
0.0026559451
0.029881884
0.0047474136
0.0026086391
0.031487282
0.0044673504
0.0024582827
0.030482985
0.0044521714
0.0024472583
0.030083159
0.0045282525
0.0024944995
0.031147093
0.0043753197
0.002403913
0.029556883
0.0044395133
0.0024254952
0.028280384
0.0046005107
0.0025024483
0.027818159
0.0046431726
0.0024692634
0.020718281
2.5625794e-06
4.1144988e-06
3.6183173e-06
4.2532747e-06
0.009039609
0.0047453913
0.029385658
0.0072629292
0.003885838
0.034119009
0.0060069802
0.0032507765
0.034105962
0.005574846
0.0030341244
0.034332636
0.0054379512
0.0029799842
0.036181142
0.0051140227
0.0028062928
0.035004322
0.0050961185
0.0027934969
0.034541459
0.0051848677
0.0028482285
0.035774796
0.0050069567
0.0027433402
0.033928903
0.0050794924
0.0027678396
0.032458295
0.0052643913
0.0028563633
0.031933042
0.0053090254
0.0028177675
0.023775246
2.3861604e-06
3.8243192e-06
3.39211e-06
3.9505878e-06
0.010380382
0.005444473
0.033861234
0.0083341633
0.0044513684
0.03927314
0.0068842865
0.0037174084
0.039204953
0.0063861117
0.0034674921
0.039445246
0.006230195
0.0034055539
0.041573838
0.0058554519
0.0032048509
0.040195311
0.0058343436
0.0031900124
0.039659482
0.0059378707
0.003253439
0.041089169
0.0057308849
0.0031319344
0.038946589
0.0058128476
0.003159736
0.03725226
0.00602525
0.0032615557
0.036655402
0.0060715626
0.0032164821
0.027281398
2.2229206e-06
3.5578325e-06
3.1815408e-06
3.6728617e-06
0.011922845
0.0062479713
0.039017209
0.0095654713
0.0051007168
0.045205081
0.007891341
0.0042524368
0.045065549
0.0073169017
0.0039641976
0.045318514
0.0071392931
0.0038933487
0.047769782
0.0067056782
0.0036613649
0.046155462
0.0066808034
0.0036441974
0.045535177
0.0068015699
0.0037177037
0.047192436
0.0065607389
0.0035768817
0.044705609
0.0066533516
0.0036084459
0.042753441
0.0068974065
0.003725531
0.042075261
0.0069449721
0.0036727031
0.031303097
2.0717407e-06
3.3127485e-06
2.9853509e-06
3.4176588e-06
0.013697654
0.007171633
0.044957691
0.010981018
0.0058464101
0.052032736
0.0090475315
0.0048659484
0.05180191
0.0083850097
0.0045336258
0.052065968
0.0081826652
0.0044525627
0.054888958
0.0076808353
0.004184325
0.052999044
0.0076515344
0.0041645576
0.052281013
0.0077924116
0.0042497221
0.054202018
0.0075121801
0.0040864134
0.05131578
0.0076168213
0.0041223182
0.04906647
0.007897308
0.0042569024
0.048295963
0.0079455361
0.0041947804
0.0359165
1.931614e-06
3.0870376e-06
2.802404e-06
3.1828215e-06
0.015740155
0.0082336349
0.051802715
0.01260864
0.0067028502
0.05989186
0.01037516
0.0055694892
0.059545271
0.0096108951
0.0051865978
0.059818044
0.0093803441
0.0050937578
0.063069232
0.0087994639
0.0047834406
0.060857256
0.0087649636
0.0047608942
0.060026105
0.0089293012
0.0048594832
0.062252763
0.0086031997
0.0046699394
0.05890314
0.0087214224
0.0047109683
0.056311412
0.0090438466
0.0048655501
0.055436124
0.0090919412
0.0047922569
0.041209
1.8016328e-06
2.8788966e-06
2.6316718e-06
2.9664351e-06
0.018091109
0.0094550023
0.05969066
0.014480407
0.007686589
0.068938725
0.011899884
0.0063762158
0.06844646
0.011018084
0.0059356284
0.068724564
0.010755369
0.005829062
0.072468972
0.010082872
0.0054697788
0.069880689
0.010042266
0.0054445386
0.068918644
0.010233971
0.0055584561
0.071499497
0.009854465
0.0053381814
0.067612303
0.0099880189
0.0053855055
0.064626016
0.010358724
0.0055628045
0.063631859
0.010405633
0.0054760106
0.047280861
1.6809767e-06
2.6867194e-06
2.4722218e-06
2.7667965e-06
0.020797522
0.010860132
0.06878103
0.016633264
0.0088166151
0.079353194
0.013651215
0.0073010051
0.078678762
0.012633628
0.0067952749
0.078957562
0.012334239
0.0066723964
0.083270055
0.011555546
0.0062558718
0.08024214
0.011507776
0.006228666
0.079128654
0.011731407
0.0063598074
0.082119941
0.011289717
0.0061032752
0.077609146
0.011440575
0.00615884
0.074168267
0.011866869
0.0063616506
0.073039333
0.011911224
0.0062583679
0.054247099
1.5689027e-06
2.5090725e-06
2.323206e-06
2.5823875e-06
0.023913605
0.012477524
0.079257644
0.019109776
0.010114649
0.091342219
0.015663093
0.0083604447
0.090441152
0.014488636
0.0077826466
0.090714455
0.014147433
0.0076397266
0.095681296
0.013245621
0.0071557292
0.092139772
0.013189456
0.0071287614
0.090851076
0.01345033
0.0072786458
0.094318038
0.012936223
0.0069787801
0.089083823
0.013106613
0.007046118
0.085119239
0.013596919
0.0072769515
0.083837663
0.013636953
0.0071531441
0.062239595
1.4647365e-06
2.3446735e-06
2.1838522e-06
2.4118511e-06
0.02750188
0.014340881
0.091332265
0.021958985
0.01160541
0.10514385
0.01797448
0.0095724732
0.10396189
0.01661887
0.0089182569
0.10422133
0.016230007
0.0087493332