/*--------------------------------*- C++ -*----------------------------------*\
  =========                 |
  \\      /  F ield         | OpenFOAM: The Open Source CFD Toolbox
   \\    /   O peration     | Website:  https://openfoam.org
    \\  /    A nd           | Version:  7
     \\/     M anipulation  |
\*---------------------------------------------------------------------------*/
FoamFile
{
    version     2.0;
    format      ascii;
    class       volScalarField;
    location    "2000/fluid";
    object      k;
}
// * * * * * * * * * * * * * * * * * * * * * * * * * * * * * * * * * * * * * //

dimensions      [0 2 -2 0 0 0 0];

internalField   nonuniform List<scalar> 
13296
(
2.8588345e-05
5.5522585e-05
5.5522697e-05
5.5522868e-05
5.5523301e-05
5.552448e-05
5.5525548e-05
5.5525194e-05
5.5524184e-05
5.552352e-05
5.552373e-05
5.5524234e-05
5.5524037e-05
5.5523409e-05
5.5522877e-05
5.5522949e-05
5.5523428e-05
5.5523492e-05
5.5523139e-05
5.5522695e-05
5.5522703e-05
5.552316e-05
5.5523323e-05
5.5523077e-05
5.5522657e-05
5.5522621e-05
5.5523051e-05
5.5523261e-05
5.5523079e-05
5.5522658e-05
5.5522559e-05
5.5522949e-05
5.5523192e-05
5.5523051e-05
5.5522639e-05
5.552254e-05
5.5522936e-05
5.5523185e-05
5.5523044e-05
5.5522637e-05
5.5522548e-05
5.5522949e-05
5.5523199e-05
5.5523063e-05
5.5522646e-05
5.5522533e-05
5.5522917e-05
5.5523167e-05
5.5523024e-05
5.5522615e-05
5.5522537e-05
5.5522953e-05
5.5523186e-05
5.5523006e-05
5.5522604e-05
5.5522583e-05
5.552304e-05
5.5523243e-05
5.5523018e-05
5.5522616e-05
5.5522644e-05
5.5523147e-05
5.5523368e-05
5.5523211e-05
5.5522903e-05
5.5522746e-05
1.1087744e-05
1.6908947e-05
1.6905899e-05
1.6893985e-05
1.6865614e-05
1.6883853e-05
1.696539e-05
1.7026342e-05
1.700635e-05
1.6939896e-05
1.6921e-05
1.697611e-05
1.7023482e-05
1.7000356e-05
1.6933406e-05
1.6912808e-05
1.6964459e-05
1.7010682e-05
1.6990081e-05
1.692596e-05
1.6907041e-05
1.6958736e-05
1.700542e-05
1.6986516e-05
1.6923928e-05
1.6906227e-05
1.6958463e-05
1.7005565e-05
1.6987057e-05
1.6923539e-05
1.6904284e-05
1.6954165e-05
1.7000159e-05
1.6982368e-05
1.6920002e-05
1.6901964e-05
1.695253e-05
1.6998995e-05
1.6981659e-05
1.6920028e-05
1.6902869e-05
1.6954408e-05
1.7001279e-05
1.6983596e-05
1.6920563e-05
1.6901617e-05
1.695109e-05
1.6996828e-05
1.69791e-05
1.6917147e-05
1.6899052e-05
1.6949321e-05
1.6995367e-05
1.6977477e-05
1.6916226e-05
1.6898791e-05
1.695012e-05
1.6996447e-05
1.6977944e-05
1.6916283e-05
1.6899168e-05
1.6953321e-05
1.7007643e-05
1.7003992e-05
1.6959196e-05
1.6937968e-05
5.8471781e-06
7.7900902e-06
7.791651e-06
7.7739131e-06
7.7085302e-06
7.733352e-06
7.8919118e-06
8.0184074e-06
7.9807889e-06
7.8375098e-06
7.7952608e-06
7.9104979e-06
8.0132079e-06
7.969283e-06
7.825084e-06
7.781859e-06
7.8914737e-06
7.9906581e-06
7.9501418e-06
7.8122644e-06
7.7724638e-06
7.8822064e-06
7.981454e-06
7.9431759e-06
7.8087572e-06
7.7712692e-06
7.8822235e-06
7.9820445e-06
7.9442588e-06
7.8080166e-06
7.7680817e-06
7.8747857e-06
7.9722329e-06
7.935625e-06
7.8019267e-06
7.7642833e-06
7.8720558e-06
7.9701675e-06
7.9343291e-06
7.8019155e-06
7.7658236e-06
7.8754686e-06
7.9744758e-06
7.9379537e-06
7.8029608e-06
7.7636941e-06
7.8694993e-06
7.9662638e-06
7.9298727e-06
7.7971836e-06
7.7594677e-06
7.8663293e-06
7.9635594e-06
7.9270884e-06
7.7958094e-06
7.7589962e-06
7.8675684e-06
7.9654914e-06
7.9280931e-06
7.795915e-06
7.7589909e-06
7.8713088e-06
7.9824719e-06
7.9722574e-06
7.8738325e-06
7.8386846e-06
3.7169244e-06
4.4909113e-06
4.5132018e-06
4.5032249e-06
4.3891477e-06
4.4125531e-06
4.6680974e-06
4.8636837e-06
4.8108169e-06
4.5592493e-06
4.4813444e-06
4.6854549e-06
4.8531774e-06
4.7885437e-06
4.545596e-06
4.464728e-06
4.660542e-06
4.8212182e-06
4.7591604e-06
4.5283504e-06
4.4540696e-06
4.6491383e-06
4.8085651e-06
4.7490989e-06
4.5229085e-06
4.4528878e-06
4.6500692e-06
4.8102727e-06
4.7509287e-06
4.5220431e-06
4.4489204e-06
4.6396366e-06
4.7959427e-06
4.7381224e-06
4.5141617e-06
4.44472e-06
4.6363465e-06
4.7930685e-06
4.7361707e-06
4.5139302e-06
4.4466547e-06
4.6413931e-06
4.7997412e-06
4.7418093e-06
4.5156907e-06
4.4438932e-06
4.6326309e-06
4.7874754e-06
4.7301784e-06
4.5085326e-06
4.4392172e-06
4.6284523e-06
4.7834576e-06
4.7264706e-06
4.5070558e-06
4.4388276e-06
4.630155e-06
4.7862337e-06
4.7283188e-06
4.507783e-06
4.4380809e-06
4.6308475e-06
4.8001656e-06
4.7763635e-06
4.5965936e-06
4.5518159e-06
2.9307008e-06
3.2457673e-06
3.2094466e-06
3.1613982e-06
3.2576463e-06
3.1154028e-06
3.7096559e-06
3.6935299e-06
3.6647928e-06
3.6556362e-06
3.2012917e-06
3.7004787e-06
3.6596552e-06
3.6298343e-06
3.5945834e-06
3.1816304e-06
3.6479815e-06
3.6053917e-06
3.5827573e-06
3.5447043e-06
3.1699259e-06
3.6273052e-06
3.585074e-06
3.5666646e-06
3.5265582e-06
3.1700868e-06
3.6311581e-06
3.5893438e-06
3.5733646e-06
3.5220245e-06
3.1654203e-06
3.6077359e-06
3.5646644e-06
3.5503838e-06
3.5039918e-06
3.1604562e-06
3.6027517e-06
3.560198e-06
3.5463124e-06
3.5028927e-06
3.1633281e-06
3.6144206e-06
3.5723366e-06
3.5583042e-06
3.5076721e-06
3.1592022e-06
3.5942108e-06
3.5509704e-06
3.5366926e-06
3.4946132e-06
3.1526411e-06
3.5873394e-06
3.5445195e-06
3.5286794e-06
3.4949526e-06
3.1513193e-06
3.5921357e-06
3.5497375e-06
3.5318319e-06
3.5018735e-06
3.1473929e-06
3.5734295e-06
3.5375788e-06
3.5209797e-06
3.4640339e-06
3.140007e-06
2.3610177e-06
2.3534008e-06
2.6421378e-06
2.6061633e-06
3.1896641e-06
3.2187408e-06
2.6515786e-06
3.1654696e-06
3.1346668e-06
2.6173631e-06
3.1051934e-06
3.0535139e-06
2.6032084e-06
3.0835085e-06
3.0217462e-06
2.6117167e-06
3.0918969e-06
3.021678e-06
2.5928491e-06
3.0590876e-06
2.9877145e-06
2.5870019e-06
3.0532431e-06
2.9833565e-06
2.598668e-06
3.0697988e-06
2.9974962e-06
2.5794016e-06
3.0411772e-06
2.9707501e-06
2.5683553e-06
3.0325997e-06
2.9668169e-06
2.5686122e-06
3.0379815e-06
2.9775061e-06
2.5378005e-06
2.9896518e-06
2.9603578e-06
2.2146157e-06
1.9427785e-06
1.6923653e-06
2.1456709e-06
1.8815212e-06
2.6929631e-06
2.765797e-06
1.9327248e-06
2.6761517e-06
2.6847798e-06
1.907408e-06
2.6241288e-06
2.6007505e-06
1.8973791e-06
2.6058351e-06
2.5680287e-06
1.9088794e-06
2.6158322e-06
2.5682357e-06
1.8913004e-06
2.5854832e-06
2.533124e-06
1.8855213e-06
2.5798823e-06
2.5284323e-06
1.897685e-06
2.5957582e-06
2.5434224e-06
1.8779451e-06
2.5685047e-06
2.5157003e-06
1.8652169e-06
2.5593872e-06
2.5116166e-06
1.8635958e-06
2.5629651e-06
2.5230627e-06
1.8226505e-06
2.5106303e-06
2.4848466e-06
1.5339917e-06
1.63101e-06
1.205214e-06
1.7867942e-06
1.3024401e-06
2.3522197e-06
2.4316826e-06
1.3661486e-06
2.3255977e-06
2.3807515e-06
1.3554309e-06
2.2737718e-06
2.3079702e-06
1.3516787e-06
2.2562511e-06
2.2809043e-06
1.3661951e-06
2.2659239e-06
2.2883636e-06
1.3522354e-06
2.2378096e-06
2.2543612e-06
1.3468219e-06
2.2325166e-06
2.2485283e-06
1.358482e-06
2.247549e-06
2.2661003e-06
1.3400533e-06
2.221867e-06
2.2355567e-06
1.3258225e-06
2.2127988e-06
2.2261206e-06
1.3214974e-06
2.2160591e-06
2.2337481e-06
1.2735896e-06
2.1673575e-06
2.1569892e-06
1.0557418e-06
1.388386e-06
8.5928246e-07
1.5121162e-06
9.0967899e-07
2.1079784e-06
2.1753976e-06
9.7019536e-07
2.0632123e-06
2.1629102e-06
9.66997e-07
2.008518e-06
2.1074365e-06
9.6661155e-07
1.9904759e-06
2.088877e-06
9.8144146e-07
1.9990638e-06
2.1061224e-06
9.7039669e-07
1.972697e-06
2.0746003e-06
9.6563805e-07
1.9677371e-06
2.0673809e-06
9.7611157e-07
1.9819068e-06
2.087972e-06
9.5981152e-07
1.9577312e-06
2.0542259e-06
9.4605133e-07
1.9491322e-06
2.0375135e-06
9.4079972e-07
1.9527119e-06
2.0394801e-06
8.9379636e-07
1.9103644e-06
1.9199667e-06
7.2856149e-07
1.1944183e-06
6.1705576e-07
1.2947402e-06
6.651046e-07
1.925005e-06
1.9779697e-06
7.0916514e-07
1.8609176e-06
2.0098424e-06
7.060883e-07
1.8023667e-06
1.9761222e-06
7.060446e-07
1.783439e-06
1.9681009e-06
7.1894608e-07
1.7906056e-06
1.9969877e-06
7.0958468e-07
1.7655949e-06
1.9687441e-06
7.0561356e-07
1.7609569e-06
1.9599313e-06
7.1461767e-07
1.7743233e-06
1.9839445e-06
7.0062352e-07
1.7514994e-06
1.9465684e-06
6.888645e-07
1.7435742e-06
1.9211361e-06
6.8435327e-07
1.747808e-06
1.9161881e-06
6.43814e-07
1.7121333e-06
1.7496612e-06
5.0729452e-07
1.0365654e-06
4.4821705e-07
1.1190651e-06
5.2147139e-07
1.7832438e-06
1.8325772e-06
5.436561e-07
1.7022927e-06
1.9120166e-06
5.359363e-07
1.639868e-06
1.9021979e-06
5.3429954e-07
1.6199073e-06
1.9058593e-06
5.441102e-07
1.6255844e-06
1.9477436e-06
5.3543229e-07
1.6015613e-06
1.9231393e-06
5.3224783e-07
1.5972233e-06
1.9125416e-06
5.3978858e-07
1.6098742e-06
1.940391e-06
5.2791923e-07
1.5882143e-06
1.8988856e-06
5.1888439e-07
1.5811148e-06
1.863664e-06
5.1606606e-07
1.5860842e-06
1.8509804e-06
4.8439673e-07
1.5564815e-06
1.6338412e-06
3.5829032e-07
9.0640048e-07
3.3055501e-07
9.7500527e-07
4.4364771e-07
1.6736268e-06
1.7354958e-06
4.4382232e-07
1.5772085e-06
1.8652685e-06
4.2880392e-07
1.5111214e-06
1.8810612e-06
4.2451489e-07
1.4900494e-06
1.8973453e-06
4.3084373e-07
1.4942633e-06
1.9535991e-06
4.2213456e-07
1.4708794e-06
1.932753e-06
4.1965875e-07
1.4668167e-06
1.9201411e-06
4.2590534e-07
1.478848e-06
1.9523583e-06
4.1580556e-07
1.4581586e-06
1.90604e-06
4.0965231e-07
1.4519547e-06
1.8599411e-06
4.0894489e-07
1.457708e-06
1.8387988e-06
3.8651192e-07
1.4332218e-06
1.5661576e-06
2.5792805e-07
7.9790879e-07
2.4830889e-07
8.5550465e-07
4.0874731e-07
1.5890463e-06
1.6840884e-06
3.887823e-07
1.4788998e-06
1.8679242e-06
3.6550031e-07
1.409603e-06
1.9111605e-06
3.5799598e-07
1.3873202e-06
1.941094e-06
3.6085443e-07
1.3901e-06
2.0133672e-06
3.5158896e-07
1.3670202e-06
1.9963061e-06
3.4971432e-07
1.3632091e-06
1.9813897e-06
3.5490409e-07
1.3747164e-06
2.0186626e-06
3.4615792e-07
1.3548074e-06
1.9666365e-06
3.4276256e-07
1.3495486e-06
1.9083562e-06
3.443002e-07
1.3561436e-06
1.8779356e-06
3.3050355e-07
1.3358062e-06
1.543082e-06
1.9003782e-07
7.0663059e-07
1.9046632e-07
7.5539485e-07
4.0362376e-07
1.5249588e-06
1.6771345e-06
3.6452492e-07
1.4028153e-06
1.9203116e-06
3.3322626e-07
1.3309461e-06
1.9932908e-06
3.2221613e-07
1.3073274e-06
2.0381602e-06
3.2176139e-07
1.3086657e-06
2.1285224e-06
3.1151641e-07
1.285558e-06
2.115258e-06
3.1013452e-07
1.2819771e-06
2.0976715e-06
3.145161e-07
1.2930528e-06
2.1408699e-06
3.067096e-07
1.2737399e-06
2.0820086e-06
3.0585812e-07
1.2694808e-06
2.0099181e-06
3.0966918e-07
1.2770078e-06
1.9692015e-06
3.0325537e-07
1.2597639e-06
1.5633605e-06
1.437193e-07
6.291941e-07
1.4940631e-07
6.7079059e-07
4.1847224e-07
1.4786298e-06
1.7148748e-06
3.6214706e-07
1.345965e-06
2.0247003e-06
3.231721e-07
1.271899e-06
2.1303654e-06
3.0891706e-07
1.2470581e-06
2.1918167e-06
3.0543501e-07
1.2469959e-06
2.302859e-06
2.9383085e-07
1.2235258e-06
2.2934271e-06
2.9284584e-07
1.220156e-06
2.2727173e-06
2.9665164e-07
1.2308903e-06
2.3229174e-06
2.8940057e-07
1.2119925e-06
2.2558356e-06
2.9088663e-07
1.208795e-06
2.1679052e-06
2.9686802e-07
1.217289e-06
2.115608e-06
2.9602187e-07
1.2018885e-06
1.6276649e-06
1.1170451e-07
5.6303294e-07
1.1989593e-07
5.9876484e-07
4.4761841e-07
1.4484681e-06
1.7994308e-06
3.7615783e-07
1.3063878e-06
2.1852902e-06
3.2949903e-07
1.2301182e-06
2.3273741e-06
3.122219e-07
1.2041017e-06
2.4074488e-06
3.0631959e-07
1.2028806e-06
2.5423532e-06
2.9322628e-07
1.178867e-06
2.5367671e-06
2.9251326e-07
1.1756596e-06
2.5123932e-06
2.9600731e-07
1.1861811e-06
2.5708852e-06
2.8892753e-07
1.1674922e-06
2.4939142e-06
2.9227703e-07
1.1652158e-06
2.387711e-06
3.0009017e-07
1.1745717e-06
2.3222498e-06
3.0337418e-07
1.1600195e-06
1.7385042e-06
8.919144e-08
5.0608938e-07
9.8355924e-08
5.369804e-07
4.8897305e-07
1.4336183e-06
1.9349094e-06
4.0332476e-07
1.2828531e-06
2.4082413e-06
3.4864957e-07
1.2040533e-06
2.5913881e-06
3.2838006e-07
1.1767871e-06
2.6924993e-06
3.2047195e-07
1.1745649e-06
2.8491974e-06
3.0575676e-07
1.1498201e-06
2.8394138e-06
3.0520893e-07
1.1467275e-06
2.8121634e-06
3.0862493e-07
1.1571646e-06
2.8780993e-06
3.0137308e-07
1.1384774e-06
2.7903978e-06
3.0619037e-07
1.1369952e-06
2.6720776e-06
3.1566018e-07
1.1471862e-06
2.5962131e-06
3.2207981e-07
1.1327362e-06
1.9001447e-06
7.3022057e-08
4.5675232e-07
8.2343589e-08
4.836148e-07
5.4219179e-07
1.4337637e-06
2.1270829e-06
4.4191467e-07
1.2746812e-06
2.701573e-06
3.7859745e-07
1.1927548e-06
2.9288708e-06
3.552086e-07
1.1640598e-06
3.0392073e-06
3.4552879e-07
1.1609038e-06
3.2112808e-06
3.2898222e-07
1.135188e-06
3.1959791e-06
3.2852026e-07
1.1321704e-06
3.1653443e-06
3.3205099e-07
1.1426429e-06
3.2399784e-06
3.2432626e-07
1.1237522e-06
3.1398277e-06
3.3037095e-07
1.1230008e-06
3.0091038e-06
3.4144641e-07
1.1340707e-06
2.9274281e-06
3.5034268e-07
1.1191639e-06
2.1184433e-06
6.1122902e-08
4.1374394e-07
7.0195234e-08
4.3722902e-07
6.0695724e-07
1.4490244e-06
2.3835404e-06
4.9120515e-07
1.2816413e-06
3.075539e-06
4.1835187e-07
1.1957368e-06
3.3271455e-06
3.9158759e-07
1.1653181e-06
3.4437679e-06
3.8023573e-07
1.161219e-06
3.634113e-06
3.6158484e-07
1.1342457e-06
3.6126439e-06
3.6114875e-07
1.1312686e-06
3.5780555e-06
3.6495929e-07
1.1418932e-06
3.6628123e-06
3.5648772e-07
1.1225896e-06
3.5482269e-06
3.6363226e-07
1.1225607e-06
3.4028735e-06
3.7635654e-07
1.1346064e-06
3.3141563e-06
3.873148e-07
1.1188546e-06
2.4011902e-06
5.213421e-08
3.7603932e-07
6.077715e-08
3.9667336e-07
6.8365627e-07
1.4798936e-06
2.7138346e-06
5.5117616e-07
1.3038933e-06
3.5259105e-06
4.6763816e-07
1.2128673e-06
3.7887874e-06
4.3713115e-07
1.1803309e-06
3.9131808e-06
4.2410588e-07
1.17522e-06
4.124975e-06
4.0301979e-07
1.1466561e-06
4.0964825e-06
4.0256238e-07
1.1436882e-06
4.0572947e-06
4.0680174e-07
1.1545824e-06
4.1538037e-06
3.973213e-07
1.1346471e-06
4.0224885e-06
4.0552013e-07
1.1353693e-06
3.8600463e-06
4.2001047e-07
1.1485396e-06
3.7629875e-06
4.3278842e-07
1.1317259e-06
2.7501075e-06
4.5162023e-08
3.4280965e-07
5.3314582e-08
3.6102138e-07
7.731977e-07
1.5272082e-06
3.1296912e-06
6.2232163e-07
1.3419028e-06
4.0446189e-06
5.2669698e-07
1.2443342e-06
4.3216083e-06
4.9197711e-07
1.2091946e-06
4.455433e-06
4.7719911e-07
1.2029513e-06
4.6922156e-06
4.5328888e-07
1.1724145e-06
4.6556255e-06
4.527708e-07
1.169426e-06
4.6111017e-06
4.5758167e-07
1.180712e-06
4.7212328e-06
4.4682889e-07
1.1599112e-06
4.5705345e-06
4.5609678e-07
1.1614434e-06
4.3882505e-06
4.7253202e-07
1.1759359e-06
4.2814448e-06
4.8700626e-07
1.1579782e-06
3.151979e-06
3.9615092e-08
3.1337996e-07
4.7275358e-08
3.295211e-07
8.7691735e-07
1.5921435e-06
3.6438213e-06
7.0554148e-07
1.3964212e-06
4.6407105e-06
5.9616199e-07
1.290626e-06
4.9345985e-06
5.5665747e-07
1.2523054e-06
5.0796864e-06
5.3998446e-07
1.2447625e-06
5.3454403e-06
5.1279888e-07
1.211815e-06
5.2994415e-06
5.1218481e-07
1.208777e-06
5.2487383e-06
5.1771178e-07
1.2205847e-06
5.3746419e-06
5.0540974e-07
1.1986642e-06
5.2014932e-06
5.1580737e-07
1.2010925e-06
4.9962575e-06
5.3442132e-07
1.2171525e-06
4.87815e-06
5.5055145e-07
1.1980518e-06
3.6134851e-06
3.5098672e-08
2.8719696e-07
4.2291189e-08
3.0155799e-07
9.9653684e-07
1.6762018e-06
4.239374e-06
8.0208396e-07
1.4685043e-06
5.3244935e-06
6.7699087e-07
1.3525234e-06
5.6382576e-06
6.3202372e-07
1.3103472e-06
5.7963624e-06
6.1325923e-07
1.3012926e-06
6.095723e-06
5.8227751e-07
1.2654346e-06
6.0387396e-06
5.8153331e-07
1.2623172e-06
5.9808888e-06
5.8792987e-07
1.2747883e-06
6.1250424e-06
5.7377737e-07
1.2514671e-06
5.9258955e-06
5.8540223e-07
1.2549038e-06
5.6941741e-06
6.064815e-07
1.2728244e-06
5.5628513e-06
6.2428638e-07
1.2526388e-06
4.1421865e-06
3.1345794e-08
2.6380417e-07
3.810465e-08
2.7662657e-07
1.1341547e-06
1.7812063e-06
4.9180316e-06
9.1352248e-07
1.5595255e-06
6.1077933e-06
7.7043248e-07
1.4311018e-06
6.4446456e-06
7.1920935e-07
1.3842898e-06
6.6175241e-06
6.9810695e-07
1.3734678e-06
6.9558418e-06
6.6272884e-07
1.3341285e-06
6.8859973e-06
6.6181924e-07
1.3309004e-06
6.8198854e-06
6.6925395e-07
1.3441916e-06
6.9851462e-06
6.5291532e-07
1.3191557e-06
6.7558974e-06
6.6589651e-07
1.3237384e-06
6.4935433e-06
6.8978178e-07
1.3438625e-06
6.3470252e-06
7.0932375e-07
1.3226892e-06
4.7467282e-06
2.8172958e-08
2.4282267e-07
3.4533566e-08
2.5430839e-07
1.292264e-06
1.9093503e-06
5.6913334e-06
1.0417569e-06
1.6711961e-06
7.0042177e-06
8.780189e-07
1.5277427e-06
7.3676433e-06
8.196179e-07
1.4753982e-06
7.5572768e-06
7.9588184e-07
1.4625086e-06
7.9404238e-06
7.5541549e-07
1.4190356e-06
7.8556153e-06
7.5430227e-07
1.4156627e-06
7.7799458e-06
7.629645e-07
1.4299499e-06
7.9696268e-06
7.4405965e-07
1.4028452e-06
7.7055129e-06
7.5855552e-07
1.4087366e-06
7.4077259e-06
7.8564532e-07
1.4314609e-06
7.2439533e-06
8.0701991e-07
1.4094215e-06
5.4370365e-06
2.5451609e-08
2.2393598e-07
3.1447116e-08
2.3425499e-07
1.4737863e-06
2.0632403e-06
6.5725911e-06
1.1890326e-06
1.8055929e-06
8.0294514e-06
1.0015753e-06
1.6441521e-06
8.4232433e-06
9.3492904e-07
1.5852484e-06
8.6318599e-06
9.0821237e-07
1.5699439e-06
9.0663787e-06
8.6185989e-07
1.5215918e-06
8.9640378e-06
8.6050019e-07
1.5180362e-06
8.8772893e-06
8.706058e-07
1.5335186e-06
9.0952969e-06
8.4869995e-07
1.5039427e-06
8.7907269e-06
8.6489777e-07
1.5113318e-06
8.4523238e-06
8.9565446e-07
1.5371118e-06
8.2689231e-06
9.1898381e-07
1.5143402e-06
6.2245344e-06
2.3089711e-08
2.0687826e-07
2.874978e-08
2.1617438e-07
1.6821135e-06
2.2459494e-06
7.5771722e-06
1.3579735e-06
1.9651924e-06
9.2015861e-06
1.1432432e-06
1.7823868e-06
9.6298762e-06
1.0671181e-06
1.7157506e-06
9.8599757e-06
1.0370187e-06
1.6976339e-06
1.0353426e-05
9.8385929e-07
1.6435496e-06
1.0230387e-05
9.8220405e-07
1.6397681e-06
1.0130886e-05
9.9400128e-07
1.6566736e-06
1.0381562e-05
9.6859399e-07
1.6241667e-06
1.0030234e-05
9.8671108e-07
1.6332701e-06
9.6452857e-06
1.0216687e-06
1.6626262e-06
9.4395338e-06
1.0470973e-06
1.6392588e-06
7.1223794e-06
2.101984e-08
1.9142488e-07
2.6370548e-08
1.9982054e-07
1.9210931e-06
2.4624049e-06
8.7228356e-06
1.5516268e-06
2.1529145e-06
1.0541491e-05
1.3055145e-06
1.9448883e-06
1.100878e-05
1.2184862e-06
1.8691796e-06
1.126316e-05
1.1845413e-06
1.8477993e-06
1.1824259e-05
1.1235097e-06
1.7870049e-06
1.1676828e-05
1.1215027e-06
1.7829483e-06
1.156263e-05
1.1352781e-06
1.801538e-06
1.1851018e-05
1.1057906e-06
1.7655729e-06
1.1445611e-05
1.1260788e-06
1.7766378e-06
1.1007259e-05
1.1658529e-06
1.8101625e-06
1.0776042e-05
1.1935448e-06
1.7863292e-06
8.1457273e-06
1.9191436e-08
1.7738525e-07
2.4255622e-08
1.84985e-07
2.195088e-06
2.7176952e-06
1.0030084e-05
1.7735192e-06
2.3721744e-06
1.2073235e-05
1.4912751e-06
2.1345239e-06
1.2584419e-05
1.3917001e-06
2.0482121e-06
1.2866202e-05
1.3533784e-06
2.0230579e-06
1.3504989e-05
1.283235e-06
1.9544281e-06
1.3328842e-05
1.280811e-06
1.9500397e-06
1.3197696e-05
1.2968964e-06
1.9706141e-06
1.3529643e-05
1.2626581e-06
1.9305842e-06
1.3061656e-05
1.2854133e-06
1.943894e-06
1.2561989e-05
1.3307138e-06
1.9822651e-06
1.2301754e-05
1.3608507e-06
1.9580772e-06
9.312025e-06
1.7565708e-08
1.6459655e-07
2.2363465e-08
1.7149017e-07
2.5091673e-06
3.0164895e-06
1.1522573e-05
2.0277234e-06
2.6269444e-06
1.3824566e-05
1.7038586e-06
2.3546373e-06
1.4384964e-05
1.5898405e-06
2.2559781e-06
1.4697632e-05
1.5465251e-06
2.2264656e-06
1.5425653e-05
1.4658446e-06
2.1487109e-06
1.521572e-05
1.4629263e-06
2.1439243e-06
1.506502e-05
1.481708e-06
2.1668309e-06
1.5447303e-05
1.441943e-06
2.1220378e-06
1.4906872e-05
1.4674927e-06
2.137909e-06
1.4336774e-05
1.5191454e-06
2.1819066e-06
1.4043476e-05
1.5519252e-06
2.1574461e-06
1.0641341e-05
1.6112274e-08
1.5291896e-07
2.0661404e-08
1.5918392e-07
2.8691996e-06
3.3642584e-06
1.3227597e-05
2.3189369e-06
2.9218278e-06
1.5827461e-05
1.9471087e-06
2.6091084e-06
1.6442837e-05
1.816457e-06
2.4961106e-06
1.6790265e-05
1.7674403e-06
2.4615739e-06
1.7620797e-05
1.6745851e-06
2.3732182e-06
1.7371126e-05
1.6710813e-06
2.3679554e-06
1.7197854e-05
1.6930087e-06
2.3935966e-06
1.7638326e-05
1.646817e-06
2.3432344e-06
1.7014008e-05
1.6755265e-06
2.3620191e-06
1.6362985e-05
1.7344746e-06
2.4125276e-06
1.6032021e-05
1.7701174e-06
2.3878486e-06
1.2156739e-05
1.4806879e-08
1.4223191e-07
1.9123298e-08
1.4793574e-07
3.2819622e-06
3.7673734e-06
1.5176512e-05
2.6525738e-06
3.2621448e-06
1.8118758e-05
2.2254532e-06
2.9024237e-06
1.8795343e-05
2.0756298e-06
2.7728014e-06
1.9181839e-05
2.0201186e-06
2.7324972e-06
2.0130144e-05
1.913197e-06
2.6318465e-06
1.9833737e-05
1.9090009e-06
2.6260163e-06
1.9634404e-05
1.9345973e-06
2.6548586e-06
2.014216e-05
1.8809329e-06
2.5979959e-06
1.9420682e-05
1.9132156e-06
2.6200873e-06
1.8676659e-05
1.980533e-06
2.6781075e-06
1.8302796e-05
2.0192775e-06
2.6532372e-06
1.3884477e-05
1.3629821e-08
1.3243092e-07
1.77279e-08
1.3763263e-07
3.7552704e-06
4.2332428e-06
1.7405312e-05
3.0348707e-06
3.6540326e-06
2.0740874e-05
2.5439869e-06
3.239758e-06
2.1485386e-05
2.3720664e-06
3.0908922e-06
2.1915731e-05
2.3091615e-06
3.0439872e-06
2.2999354e-05
2.1859839e-06
2.9290941e-06
2.2647986e-05
2.1809699e-06
2.9225891e-06
2.2418559e-05
2.2108451e-06
2.9551742e-06
2.3004132e-05
2.1484916e-06
2.8907326e-06
2.2170096e-05
2.1848172e-06
2.9165712e-06
2.1319182e-05
2.2617374e-06
2.9832407e-06
2.0896471e-05
2.3038285e-06
2.9581738e-06
1.585517e-05
1.2564862e-08
1.2342506e-07
1.6457663e-08
1.2817604e-07
4.2981308e-06
4.7704333e-06
1.9955965e-05
3.4730096e-06
4.1045629e-06
2.3742647e-05
2.9085624e-06
3.6270675e-06
2.4562309e-05
2.7111882e-06
3.4559638e-06
2.5041798e-05
2.6398628e-06
3.4015195e-06
2.6280905e-05
2.4978928e-06
3.2701421e-06
2.5864908e-05
2.4919136e-06
3.2628365e-06
2.5600719e-05
2.5267781e-06
3.2997936e-06
2.6276311e-05
2.4543208e-06
3.226524e-06
2.5311857e-05
2.495223e-06
3.2566034e-06
2.4338076e-05
2.5831663e-06
3.3332197e-06
2.3859755e-05
2.6288484e-06
3.3079016e-06
1.8103934e-05
1.1598453e-08
1.1513495e-07
1.5297919e-08
1.1948027e-07
4.9209195e-06
5.3888174e-06
2.2876889e-05
3.9752597e-06
4.6218881e-06
2.7180081e-05
3.3259219e-06
4.0712112e-06
2.8082784e-05
3.0992293e-06
3.8744398e-06
2.8617328e-05
3.0183095e-06
3.8113955e-06
3.0035107e-05
2.8546088e-06
3.6609516e-06
2.9543115e-05
2.8474912e-06
3.6526978e-06
2.923877e-05
2.8881736e-06
3.6947574e-06
3.0018509e-05
2.803966e-06
3.6112135e-06
2.890292e-05
2.8500508e-06
3.6460913e-06
2.7787834e-05
2.9506532e-06
3.73414e-06
2.7246112e-05
3.0001664e-06
3.7084491e-06
2.0670944e-05
1.0719163e-08
1.0749104e-07
1.4236278e-08
1.1147035e-07
5.6355907e-06
6.0997775e-06
2.6223581e-05
4.5511402e-06
5.2154089e-06
3.1117731e-05
3.8038286e-06
4.5800966e-06
3.2111751e-05
3.5433549e-06
4.3537187e-06
3.2707928e-05
3.4514985e-06
4.2808644e-06
3.4331248e-05
3.2626634e-06
4.108383e-06
3.3749871e-05
3.254204e-06
4.0990099e-06
3.3399094e-05
3.3016701e-06
4.1470169e-06
3.4299415e-05
3.2037963e-06
4.0515273e-06
3.3008535e-05
3.2557507e-06
4.091836e-06
3.1730861e-05
3.3708969e-06
4.1930195e-06
3.111702e-05
3.4244665e-06
4.1667247e-06
2.3602604e-05
9.9172564e-09
1.0043203e-07
1.3262172e-08
1.0408043e-07
6.4559166e-06
6.9164315e-06
3.0059967e-05
5.211608e-06
5.8959323e-06
3.5630372e-05
4.3512093e-06
5.1628238e-06
3.6724282e-05
4.0517989e-06
4.9023147e-06
3.7389209e-05
3.9474724e-06
4.818274e-06
3.9248737e-05
3.7295566e-06
4.6203065e-06
3.8562251e-05
3.7195152e-06
4.6096086e-06
3.8157825e-05
3.7748941e-06
4.6645574e-06
3.9197728e-05
3.6611197e-06
4.5551622e-06
3.7703648e-05
3.7197221e-06
4.6016101e-06
3.6239117e-05
3.8515847e-06
4.7178844e-06
3.5543258e-05
3.9094379e-06
4.6906206e-06
2.6952018e-05
9.1843782e-09
9.3903762e-08
1.236651e-08
9.7252396e-08
7.3978015e-06
7.8539015e-06
3.4459662e-05
5.9692748e-06
6.6758859e-06
4.0803747e-05
4.9783309e-06
5.8298334e-06
4.2006599e-05
4.634018e-06
5.529966e-06
4.2748135e-05
4.5154697e-06
5.4331818e-06
4.4879065e-05
4.2638979e-06
5.2057369e-06
4.4069037e-05
4.2519923e-06
5.1934746e-06
4.3602618e-05
4.3166007e-06
5.2565197e-06
4.4804052e-05
4.1843271e-06
5.1309476e-06
4.3074426e-05
4.2504582e-06
5.1843296e-06
4.139508e-05
4.4015365e-06
5.3179327e-06
4.060597e-05
4.4639001e-06
5.2892124e-06
3.0779462e-05
8.5133061e-09
8.7858266e-08
1.1541419e-08
9.0934824e-08
8.4794873e-06
8.9295583e-06
3.9507674e-05
6.8386549e-06
7.5695642e-06
4.6736515e-05
5.6969803e-06
6.5930824e-06
4.8057734e-05
5.3008744e-06
6.2478473e-06
4.8884547e-05
5.1661047e-06
6.136554e-06
5.1327352e-05
4.875584e-06
5.8750311e-06
5.0372176e-05
4.8614841e-06
5.8609236e-06
4.9834157e-05
4.9368532e-06
5.933407e-06
5.1222452e-05
4.7830663e-06
5.7890277e-06
4.9219982e-05
4.8577291e-06
5.850247e-06
4.7293834e-05
5.0308978e-06
6.0037439e-06
4.6398709e-05
5.0979622e-06
5.9729228e-06
3.5154463e-05
7.8977607e-09
8.2252871e-08
1.078003e-08
8.5082022e-08
9.7220119e-06
1.0163383e-05
4.5302142e-05
7.8364678e-06
8.5933856e-06
5.354247e-05
6.5207225e-06
7.466327e-06
5.4991969e-05
6.0648723e-06
7.0688173e-06
5.5913585e-05
5.9115926e-06
6.9410005e-06
5.8714643e-05
5.5760046e-06
6.6400963e-06
5.7589145e-05
5.5593235e-06
6.6238167e-06
5.6968397e-05
5.6472334e-06
6.7072923e-06
5.8572905e-05
5.4684279e-06
6.5410605e-06
5.6254078e-05
5.5527424e-06
6.6111195e-06
5.4043899e-05
5.7513068e-06
6.787441e-06
5.3028227e-05
5.8232172e-06
6.7537152e-06
4.0156912e-05
7.3322525e-09
7.70495e-08
1.0076322e-08
7.9653282e-08
1.1149658e-05
1.1578386e-05
5.1955667e-05
8.9819756e-06
9.7661934e-06
6.1352702e-05
7.4651507e-06
8.4653501e-06
6.2940157e-05
6.9403701e-06
8.0076252e-06
6.3966863e-05
6.7659869e-06
7.8610168e-06
6.7180006e-05
6.3782251e-06
7.5146018e-06
6.5853915e-05
6.3585029e-06
7.4957637e-06
6.5137436e-05
6.4610458e-06
7.5920474e-06
6.6992619e-05
6.2531198e-06
7.4004139e-06
6.430646e-05
6.3483511e-06
7.4804344e-06
6.1769496e-05
6.5761182e-06
7.6829417e-06
6.0616753e-05
6.6529636e-06
7.6453193e-06
4.5878457e-05
6.8119603e-09
7.221408e-08
9.4249863e-09
7.4612259e-08
1.27904e-05
1.3201085e-05
5.9597728e-05
1.0297355e-05
1.1109675e-05
7.0317503e-05
8.5481871e-06
9.6082936e-06
7.2052132e-05
7.9438604e-06
9.0812177e-06
7.3195223e-05
7.7454145e-06
8.9132424e-06
7.688232e-05
7.2972413e-06
8.5142209e-06
7.5320425e-05
7.2739388e-06
8.4923699e-06
7.4493265e-05
7.3935537e-06
8.603586e-06
7.6638748e-05
7.1517352e-06
8.3824088e-06
7.3526514e-05
7.2593143e-06
8.4736606e-06
7.0613617e-05
7.5206671e-06
8.7062205e-06
6.9305043e-05
7.6024586e-06
8.6634647e-06
5.2424222e-05
6.3326309e-09
6.7716037e-08
8.8213271e-09
6.9926384e-08
1.4676469e-05
1.5062042e-05
6.8377427e-05
1.1808129e-05
1.2648808e-05
8.0609463e-05
9.7904391e-06
1.0916028e-05
8.2500636e-05
9.0943009e-06
1.030906e-05
8.3772479e-05
8.868415e-06
1.0116779e-05
8.8004593e-05
8.3502852e-06
9.6569292e-06
8.616568e-05
8.3227693e-06
9.6315381e-06
8.5210543e-05
8.4622998e-06
9.7601559e-06
8.769225e-05
8.1810355e-06
9.5046216e-06
8.4085746e-05
8.3025788e-06
9.6085435e-06
8.074033e-05
8.6025636e-06
9.8755991e-06
7.9254624e-05
8.689208e-06
9.8261745e-06
5.9914788e-05
5.890498e-09
6.3527874e-08
8.2611697e-09
6.5566391e-08
1.6844984e-05
1.7196464e-05
7.8467019e-05
1.3543678e-05
1.4412349e-05
9.2427847e-05
1.1215605e-05
1.2412512e-05
9.4484279e-05
1.0413484e-05
1.17135e-05
9.5898278e-05
1.0156305e-05
1.1493559e-05
0.00010075719
9.5571565e-06
1.096336e-05
9.8592875e-05
9.5246835e-06
1.0933821e-05
9.7489748e-05
9.6874464e-06
1.1082712e-05
0.00010036092
9.3602719e-06
1.0787218e-05
9.6180967e-05
9.4976036e-06
1.0905441e-05
9.2337885e-05
9.8420308e-06
1.1212096e-05
9.0650864e-05
9.9332989e-06
1.1154106e-05
6.8488482e-05
5.4822143e-09
5.9624791e-08
7.7407906e-09
6.1505921e-08
1.9338747e-05
1.9644867e-05
9.006499e-05
1.5537834e-05
1.6433372e-05
0.00010600203
1.2850939e-05
1.4125256e-05
0.00010823132
1.192646e-05
1.3320206e-05
0.00010980194
1.1633596e-05
1.3068773e-05
0.00011538176
1.0940605e-05
1.245719e-05
0.00011283527
1.0902302e-05
1.242281e-05
0.000111561
1.1092166e-05
1.259531e-05
0.00011488334
1.0711555e-05
1.2253327e-05
0.00011003804
1.0866733e-05
1.2387709e-05
0.00010562227
1.1262293e-05
1.2739819e-05
0.00010370648
1.1357781e-05
1.2670935e-05
7.8303992e-05
5.104795e-09
5.5984371e-08
7.2568577e-09
5.7721181e-08
2.2207108e-05
2.2453911e-05
0.00010340005
1.7829562e-05
1.8749904e-05
0.00012159598
1.4727791e-05
1.6085846e-05
0.00012400404
1.3662029e-05
1.5158663e-05
0.00012574687
1.332847e-05
1.4871353e-05
0.00013215591
1.252677e-05
1.4165576e-05
0.00012916064
1.2481612e-05
1.4125591e-05
0.00012768845
1.2703091e-05
1.4325566e-05
0.00013153347
1.2260279e-05
1.3929471e-05
0.00012591611
1.2435625e-05
1.4082148e-05
0.0001208413
1.2890025e-05
1.4486421e-05
0.00011866558
1.2989103e-05
1.4403802e-05
8.9543351e-05
4.7555705e-09
5.2586306e-08
6.8063798e-09
5.4190637e-08
2.5506953e-05
2.5677348e-05
0.00011873574
2.0463742e-05
2.1405669e-05
0.00013951349
1.6882217e-05
1.8330521e-05
0.00014210388
1.56533e-05
1.7262754e-05
0.00014403557
1.5273335e-05
1.6934519e-05
0.00015139847
1.4345688e-05
1.6119669e-05
0.00014787631
1.4292473e-05
1.6073283e-05
0.00014617523
1.4550833e-05
1.6305186e-05
0.00015062583
1.4035614e-05
1.5846062e-05
0.00014411255
1.4233744e-05
1.6019542e-05
0.00013827927
1.4755859e-05
1.6483638e-05
0.00013580824
1.4857618e-05
1.6383805e-05
0.00010241537
4.4321462e-09
4.9412157e-08
6.3866639e-09
5.0894759e-08
2.9303862e-05
2.9377121e-05
0.00013637576
2.349207e-05
2.445095e-05
0.00016010417
1.9355696e-05
2.090085e-05
0.00016287719
1.793834e-05
1.9671473e-05
0.0001650155
1.7505457e-05
1.9296437e-05
0.00017347567
1.6431875e-05
1.835517e-05
0.00016933502
1.6369191e-05
1.8301667e-05
0.00016736928
1.6670574e-05
1.857058e-05
0.00017252148
1.6071065e-05
1.8037939e-05
0.00016496851
1.6294928e-05
1.8235264e-05
0.00015826236
1.6894983e-05
1.8767881e-05
0.00015545589
1.6998159e-05
1.8646542e-05
0.00011715955
4.1323683e-09
4.6445152e-08
5.9952793e-09
4.7815797e-08
3.3673456e-05
3.3624704e-05
0.00015667002
2.6974098e-05
2.7943553e-05
0.00018377034
2.2195938e-05
2.3844437e-05
0.00018672192
2.0560919e-05
2.242974e-05
0.0001890857
2.0067693e-05
2.2000943e-05
0.00019880808
1.8824996e-05
2.091293e-05
0.00019394155
1.8751188e-05
2.0851939e-05
0.00019166988
1.9102761e-05
2.1163549e-05
0.00019763492
1.8405121e-05
2.054495e-05
0.00018887536
1.8658039e-05
2.077002e-05
0.0001811647
1.9347812e-05
2.1380913e-05
0.00017797723
1.9450703e-05
2.1232714e-05
0.00013405058
3.854295e-09
4.3670003e-08
5.6300261e-09
4.4937591e-08
3.8702933e-05
3.8502712e-05
0.00018002175
3.0978433e-05
3.1949925e-05
0.00021097489
2.5457831e-05
2.7215602e-05
0.00021409517
2.3571366e-05
2.5589442e-05
0.00021670435
2.3009331e-05
2.509837e-05
0.00022787863
2.1570635e-05
2.3839568e-05