/*--------------------------------*- C++ -*----------------------------------*\
  =========                 |
  \\      /  F ield         | OpenFOAM: The Open Source CFD Toolbox
   \\    /   O peration     | Website:  https://openfoam.org
    \\  /    A nd           | Version:  7
     \\/     M anipulation  |
\*---------------------------------------------------------------------------*/
FoamFile
{
    version     2.0;
    format      ascii;
    class       volScalarField;
    location    "2000/fluid";
    object      nut;
}
// * * * * * * * * * * * * * * * * * * * * * * * * * * * * * * * * * * * * * //

dimensions      [0 2 -1 0 0 0 0];

internalField   nonuniform List<scalar> 
13296
(
1.344735e-09
1.8096892e-09
1.8096928e-09
1.809698e-09
1.8097113e-09
1.8097524e-09
1.8097932e-09
1.8097846e-09
1.8097491e-09
1.8097229e-09
1.809729e-09
1.8097491e-09
1.809745e-09
1.8097223e-09
1.8097007e-09
1.809702e-09
1.809721e-09
1.8097257e-09
1.8097126e-09
1.809694e-09
1.8096933e-09
1.8097116e-09
1.8097196e-09
1.8097102e-09
1.8096926e-09
1.8096904e-09
1.8097078e-09
1.8097175e-09
1.8097103e-09
1.8096926e-09
1.8096882e-09
1.8097041e-09
1.8097149e-09
1.8097091e-09
1.8096918e-09
1.8096874e-09
1.8097036e-09
1.8097146e-09
1.8097089e-09
1.8096917e-09
1.8096878e-09
1.8097042e-09
1.8097152e-09
1.8097096e-09
1.8096921e-09
1.8096872e-09
1.8097029e-09
1.8097138e-09
1.809708e-09
1.8096908e-09
1.8096872e-09
1.809704e-09
1.8097144e-09
1.8097073e-09
1.8096904e-09
1.8096887e-09
1.809707e-09
1.8097164e-09
1.8097077e-09
1.8096908e-09
1.8096908e-09
1.8097108e-09
1.8097213e-09
1.8097158e-09
1.8097029e-09
1.8096964e-09
9.4141016e-10
1.0921232e-09
1.0919948e-09
1.0915116e-09
1.0903791e-09
1.0911407e-09
1.0944648e-09
1.0969779e-09
1.0961663e-09
1.093437e-09
1.0926557e-09
1.094896e-09
1.096846e-09
1.0958986e-09
1.0931469e-09
1.092301e-09
1.0944069e-09
1.0963101e-09
1.0954661e-09
1.092832e-09
1.0920582e-09
1.094169e-09
1.0960912e-09
1.0953159e-09
1.0927463e-09
1.0920224e-09
1.0941572e-09
1.0960972e-09
1.0953347e-09
1.0927307e-09
1.0919408e-09
1.0939802e-09
1.0958738e-09
1.0951401e-09
1.0925851e-09
1.0918453e-09
1.0939128e-09
1.0958256e-09
1.0951109e-09
1.0925862e-09
1.0918826e-09
1.0939901e-09
1.0959202e-09
1.0951906e-09
1.0926082e-09
1.0918308e-09
1.0938536e-09
1.095736e-09
1.0950053e-09
1.0924677e-09
1.0917262e-09
1.0937805e-09
1.0956751e-09
1.0949402e-09
1.0924293e-09
1.0917171e-09
1.0938135e-09
1.0957197e-09
1.0949619e-09
1.0924321e-09
1.0917347e-09
1.0939466e-09
1.0961831e-09
1.0960378e-09
1.0941939e-09
1.0933156e-09
7.7545915e-10
8.4101377e-10
8.4102609e-10
8.3997873e-10
8.3640065e-10
8.3792422e-10
8.4696239e-10
8.5447853e-10
8.5246947e-10
8.4411195e-10
8.4159162e-10
8.4812865e-10
8.5420697e-10
8.5172619e-10
8.4327975e-10
8.4074578e-10
8.4700732e-10
8.5285949e-10
8.5052765e-10
8.4249602e-10
8.4017006e-10
8.4646439e-10
8.5231276e-10
8.5007915e-10
8.4228531e-10
8.4009047e-10
8.4647319e-10
8.5235667e-10
8.5012462e-10
8.4223965e-10
8.3989421e-10
8.4603782e-10
8.5177087e-10
8.4959883e-10
8.4187705e-10
8.3966986e-10
8.4587526e-10
8.5164563e-10
8.495221e-10
8.4187577e-10
8.3976158e-10
8.4607844e-10
8.519062e-10
8.4973666e-10
8.4193836e-10
8.3963332e-10
8.457238e-10
8.5141075e-10
8.4925519e-10
8.4159647e-10
8.3938793e-10
8.4552859e-10
8.5124093e-10
8.4910083e-10
8.415165e-10
8.3936668e-10
8.4559474e-10
8.5135042e-10
8.4917631e-10
8.4152594e-10
8.3937995e-10
8.4582431e-10
8.5236635e-10
8.5181294e-10
8.460355e-10
8.4387666e-10
6.9404283e-10
7.2239497e-10
7.2321621e-10
7.2229535e-10
7.1629046e-10
7.1897025e-10
7.3712772e-10
7.5083405e-10
7.4776803e-10
7.3015536e-10
7.2406805e-10
7.3838531e-10
7.5011562e-10
7.4575819e-10
7.2907145e-10
7.2259698e-10
7.3637325e-10
7.4757163e-10
7.4320025e-10
7.2766499e-10
7.217243e-10
7.3548128e-10
7.4657642e-10
7.4231219e-10
7.27207e-10
7.2160407e-10
7.3557541e-10
7.4675228e-10
7.4242009e-10
7.2713885e-10
7.2125984e-10
7.3473898e-10
7.4559684e-10
7.4135383e-10
7.2651448e-10
7.209514e-10
7.3448538e-10
7.4536036e-10
7.411949e-10
7.2648747e-10
7.2110443e-10
7.3489582e-10
7.4591306e-10
7.4165308e-10
7.2663842e-10
7.2087539e-10
7.341814e-10
7.4490418e-10
7.4071336e-10
7.2608457e-10
7.2055138e-10
7.3384506e-10
7.4455228e-10
7.4044271e-10
7.2597602e-10
7.2055645e-10
7.3397598e-10
7.4475582e-10
7.4063476e-10
7.2606947e-10
7.2057295e-10
7.3406443e-10
7.4577191e-10
7.4411349e-10
7.3121002e-10
7.2636125e-10
6.8353222e-10
7.0860531e-10
6.9239973e-10
6.8153995e-10
7.2801094e-10
7.0734585e-10
7.6548418e-10
7.3614199e-10
7.387814e-10
7.7776848e-10
7.1583092e-10
7.6266667e-10
7.3170324e-10
7.3564261e-10
7.6919486e-10
7.1329593e-10
7.5637269e-10
7.2556124e-10
7.306708e-10
7.6268343e-10
7.1200896e-10
7.5402097e-10
7.2328911e-10
7.2899731e-10
7.601908e-10
7.1201773e-10
7.5445566e-10
7.2374575e-10
7.2996623e-10
7.5938758e-10
7.11462e-10
7.5168282e-10
7.2099082e-10
7.2741614e-10
7.5724252e-10
7.1100084e-10
7.5118956e-10
7.2051377e-10
7.269165e-10
7.5711006e-10
7.1132163e-10
7.5255317e-10
7.2186596e-10
7.2835915e-10
7.5764044e-10
7.1083514e-10
7.5016871e-10
7.1949492e-10
7.2587304e-10
7.5629497e-10
7.1020731e-10
7.4949041e-10
7.1882366e-10
7.2483139e-10
7.5658881e-10
7.1011613e-10
7.5013021e-10
7.1944763e-10
7.2513079e-10
7.5777017e-10
7.0984027e-10
7.478774e-10
7.1741523e-10
7.185099e-10
7.3688292e-10
6.8021862e-10
6.3699941e-10
4.5312401e-10
6.6737988e-10
5.0179093e-10
7.3823833e-10
7.3986737e-10
5.105352e-10
7.383833e-10
7.2251955e-10
5.0394734e-10
7.3230073e-10
7.0837656e-10
5.0122199e-10
7.3022623e-10
7.0251274e-10
5.0286019e-10
7.3172467e-10
7.0101229e-10
4.9922742e-10
7.2782078e-10
6.9589314e-10
4.981016e-10
7.2706645e-10
6.9546675e-10
5.0034779e-10
7.2920115e-10
6.9704207e-10
4.9663823e-10
7.2557669e-10
6.9377588e-10
4.9451139e-10
7.2424246e-10
6.9436273e-10
4.9456085e-10
7.2458976e-10
6.9686678e-10
4.8862836e-10
7.1650472e-10
6.9586931e-10
4.2640232e-10
5.9549881e-10
3.2584819e-10
6.2307629e-10
3.6226828e-10
7.1239422e-10
7.1920878e-10
3.7212702e-10
7.1545269e-10
6.9754562e-10
3.6725251e-10
7.1077025e-10
6.7973429e-10
3.6532156e-10
7.0932283e-10
6.7233351e-10
3.6753582e-10
7.1146587e-10
6.7023219e-10
3.6415117e-10
7.0766632e-10
6.639429e-10
3.6303845e-10
7.0684923e-10
6.6343188e-10
3.6538045e-10
7.0911744e-10
6.653193e-10
3.6157974e-10
7.0532144e-10
6.6144303e-10
3.5912904e-10
7.0359699e-10
6.6239319e-10
3.5881692e-10
7.0349036e-10
6.6570694e-10
3.5093331e-10
6.9367506e-10
6.6268423e-10
2.953549e-10
5.5886915e-10
2.3205202e-10
5.8441293e-10
2.5077194e-10
6.9813683e-10
7.018716e-10
2.6303838e-10
6.9973518e-10
6.8421235e-10
2.6097479e-10
6.9452663e-10
6.6689e-10
2.6025234e-10
6.9304082e-10
6.5991219e-10
2.6304734e-10
6.9534247e-10
6.5915084e-10
2.6035954e-10
6.9153242e-10
6.5243017e-10
2.5931723e-10
6.9068001e-10
6.516176e-10
2.6156226e-10
6.9303524e-10
6.5426066e-10
2.58014e-10
6.8911568e-10
6.4935543e-10
2.5527399e-10
6.8721377e-10
6.4922287e-10
2.5444124e-10
6.8703904e-10
6.5204173e-10
2.4521706e-10
6.7714111e-10
6.4030651e-10
2.0327262e-10
5.2488738e-10
1.6544633e-10
5.489022e-10
1.7514968e-10
6.9190259e-10
6.8596439e-10
1.8680151e-10
6.891605e-10
6.7699605e-10
1.861857e-10
6.8237559e-10
6.627764e-10
1.8611148e-10
6.8043275e-10
6.5745582e-10
1.8896683e-10
6.8262234e-10
6.5915409e-10
1.8684027e-10
6.7868543e-10
6.5254546e-10
1.8592404e-10
6.7781676e-10
6.5131628e-10
1.8794062e-10
6.8023272e-10
6.5492926e-10
1.848022e-10
6.7620522e-10
6.4881753e-10
1.8215282e-10
6.7428209e-10
6.4676534e-10
1.8114167e-10
6.7425928e-10
6.4829989e-10
1.7209164e-10
6.6519175e-10
6.243544e-10
1.402773e-10
4.931657e-10
1.1880798e-10
5.1564418e-10
1.2805931e-10
6.9045397e-10
6.7217179e-10
1.3654272e-10
6.8208398e-10
6.7524643e-10
1.3595031e-10
6.7320869e-10
6.6615067e-10
1.359419e-10
6.7062862e-10
6.6341717e-10
1.3842595e-10
6.7254738e-10
6.6841339e-10
1.366235e-10
6.6841328e-10
6.6233056e-10
1.358589e-10
6.6753817e-10
6.6059546e-10
1.3759255e-10
6.7000381e-10
6.6534447e-10
1.3489812e-10
6.6587088e-10
6.5788686e-10
1.3263404e-10
6.6401654e-10
6.5327046e-10
1.3176545e-10
6.6427965e-10
6.5294611e-10
1.2396001e-10
6.5643112e-10
6.1411686e-10
9.7674536e-11
4.6370557e-10
8.6299754e-11
4.8462561e-10
1.0040415e-10
6.9176911e-10
6.629949e-10
1.046756e-10
6.7760908e-10
6.8036933e-10
1.0318923e-10
6.6647428e-10
6.7773662e-10
1.0287408e-10
6.6317329e-10
6.7825821e-10
1.0476303e-10
6.6474592e-10
6.8717085e-10
1.0309219e-10
6.6036517e-10
6.8188925e-10
1.0247905e-10
6.5948917e-10
6.7958147e-10
1.0393095e-10
6.6200054e-10
6.8559422e-10
1.0164562e-10
6.5775889e-10
6.7667762e-10
9.990605e-11
6.5603758e-10
6.6904443e-10
9.9363409e-11
6.5664082e-10
6.6643581e-10
9.3265794e-11
6.5010995e-10
6.1066745e-10
6.8985252e-11
4.3648529e-10
6.3645093e-11
4.5588679e-10
8.5419974e-11
6.9509281e-10
6.6073432e-10
8.5453592e-11
6.7519466e-10
6.9413435e-10
8.2561948e-11
6.6183781e-10
6.990325e-10
8.1736138e-11
6.5779881e-10
7.0329412e-10
8.2954693e-11
6.5900128e-10
7.1661658e-10
8.1277828e-11
6.5433981e-10
7.1232325e-10
8.0801137e-11
6.5346597e-10
7.0938066e-10
8.2003855e-11
6.5602252e-10
7.1678368e-10
8.0059242e-11
6.5166704e-10
7.0628124e-10
7.8874496e-11
6.5011102e-10
6.9525498e-10
7.8738289e-11
6.5107448e-10
6.900513e-10
7.4419042e-11
6.4577751e-10
6.1538417e-10
4.9661492e-11
4.113959e-10
4.7809418e-11
4.2936648e-10
7.8700247e-11
6.9979634e-10
6.6709999e-10
7.4856182e-11
6.7443627e-10
7.1816536e-10
7.0373465e-11
6.5905615e-10
7.3145193e-10
6.8928581e-11
6.5430535e-10
7.3987542e-10
6.9478947e-11
6.5514388e-10
7.5808724e-10
6.7694972e-11
6.5018218e-10
7.5491887e-10
6.733403e-11
6.4931173e-10
7.5127486e-10
6.8333267e-11
6.5191465e-10
7.6021119e-10
6.664928e-11
6.4744052e-10
7.4796598e-10
6.5995536e-11
6.460616e-10
7.3317958e-10
6.6291594e-11
6.4738302e-10
7.2509705e-10
6.3635186e-11
6.4313383e-10
6.2952459e-10
3.65899e-11
3.8826279e-10
3.6672403e-11
4.049137e-10
7.7713759e-11
7.0542684e-10
6.8350506e-10
7.0185663e-11
6.7502583e-10
7.5387619e-10
6.4159416e-11
6.5789731e-10
7.763782e-10
6.2039524e-11
6.5249351e-10
7.8938211e-10
6.195197e-11
6.5299585e-10
8.1299748e-10
5.9979399e-11
6.4772889e-10
8.1106383e-10
5.971333e-11
6.4686141e-10
8.0664174e-10
6.0556961e-11
6.4951312e-10
8.1728158e-10
5.9053895e-11
6.4491648e-10
8.0309693e-10
5.8889951e-11
6.4370988e-10
7.8415401e-10
5.9623735e-11
6.4537014e-10
7.7290306e-10
5.8388818e-11
6.4191287e-10
6.5419981e-10
2.7671727e-11
3.668956e-10
2.8766705e-11
3.8233629e-10
8.0572686e-11
7.1172029e-10
7.1113148e-10
6.972783e-11
6.7673408e-10
8.026657e-10
6.2223588e-11
6.5810417e-10
8.3525232e-10
5.9478921e-11
6.5213165e-10
8.5329135e-10
5.8808487e-11
6.5234601e-10
8.8289987e-10
5.6574221e-11
6.4678199e-10
8.8230179e-10
5.6384566e-11
6.4591548e-10
8.7701024e-10
5.7117336e-11
6.4861965e-10
8.8956e-10
5.5721214e-11
6.4389737e-10
8.731913e-10
5.6007341e-11
6.4284366e-10
8.4963509e-10
5.7158997e-11
6.4480643e-10
8.3489272e-10
5.699608e-11
6.4186637e-10
6.9046137e-10
2.1507598e-11
3.471379e-10
2.3084774e-11
3.6148139e-10
8.6184491e-11
7.1859179e-10
7.5116334e-10
7.2425465e-11
6.7941649e-10
8.6602759e-10
6.3441776e-11
6.5946944e-10
9.096808e-10
6.0115235e-11
6.5298799e-10
9.3327216e-10
5.8978804e-11
6.5296052e-10
9.6956972e-10
5.6457817e-11
6.4711367e-10
9.7040052e-10
5.6320531e-11
6.46245e-10
9.6413143e-10
5.6993277e-11
6.4900661e-10
9.7883862e-10
5.5630135e-11
6.4415515e-10
9.5998618e-10
5.6275047e-11
6.4322801e-10
9.3128521e-10
5.777939e-11
6.4545955e-10
9.1267688e-10
5.8411693e-11
6.4280518e-10
7.3944777e-10
1.7172929e-11
3.2879166e-10
1.8937459e-11
3.4214095e-10
9.4146918e-11
7.2614754e-10
8.0493886e-10
7.7656189e-11
6.8306246e-10
9.4564855e-10
6.7129022e-11
6.6190246e-10
1.0015314e-09
6.3226329e-11
6.5493734e-10
1.0312715e-09
6.1703699e-11
6.5468627e-10
1.0738445e-09
5.8870437e-11
6.4855222e-10
1.0744656e-09
5.8764957e-11
6.4768062e-10
1.0673902e-09
5.9422674e-11
6.5050289e-10
1.0840611e-09
5.8026403e-11
6.4551807e-10
1.0625757e-09
5.8953923e-11
6.4471161e-10
1.0300446e-09
6.0777242e-11
6.4720054e-10
1.0081338e-09
6.2013278e-11
6.4464024e-10
8.0245417e-10
1.4059674e-11
3.1169066e-10
1.5854443e-11
3.2413696e-10
1.0439366e-10
7.3471753e-10
8.7393958e-10
8.5086294e-11
6.8785696e-10
1.0434657e-09
7.2895189e-11
6.654905e-10
1.1124457e-09
6.8391899e-11
6.5802645e-10
1.1459347e-09
6.6528148e-11
6.5754078e-10
1.1934951e-09
6.3342269e-11
6.5109038e-10
1.1936875e-09
6.3253324e-11
6.5021736e-10
1.1856913e-09
6.3933129e-11
6.5310301e-10
1.204602e-09
6.244581e-11
6.4797715e-10
1.1801192e-09
6.3609656e-11
6.4730794e-10
1.1436413e-09
6.5742124e-11
6.5006791e-10
1.1193691e-09
6.7455013e-11
6.4744137e-10
8.8097094e-10
1.1768609e-11
2.9569521e-10
1.3515397e-11
3.0731889e-10
1.1686361e-10
7.4487781e-10
9.5988953e-10
9.4576688e-11
6.9422777e-10
1.1618172e-09
8.054951e-11
6.7054624e-10
1.2400442e-09
7.5396312e-11
6.6252109e-10
1.2768108e-09
7.3210625e-11
6.6176094e-10
1.3300944e-09
6.961958e-11
6.5493691e-10
1.3298008e-09
6.9535615e-11
6.540657e-10
1.320752e-09
7.0269297e-11
6.570187e-10
1.3422225e-09
6.863818e-11
6.5173767e-10
1.3143154e-09
7.0013791e-11
6.5124605e-10
1.2733271e-09
7.2463725e-11
6.543147e-10
1.2463457e-09
7.457363e-11
6.5148943e-10
9.7683172e-10
1.0037926e-11
2.8068681e-10
1.1702038e-11
2.9155841e-10
1.3163125e-10
7.574388e-10
1.0648492e-09
1.0612351e-10
7.0285634e-10
1.3000778e-09
9.0039097e-11
6.7761891e-10
1.3852928e-09
8.4165273e-11
6.6892249e-10
1.4258461e-09
8.1657388e-11
6.6782118e-10
1.4856858e-09
7.7597469e-11
6.6053692e-10
1.4848233e-09
7.75094e-11
6.5967182e-10
1.47457e-09
7.8325646e-11
6.6269891e-10
1.4989707e-09
7.6500282e-11
6.5723979e-10
1.4671419e-09
7.8078885e-11
6.5698539e-10
1.4210027e-09
8.0868857e-11
6.6042605e-10
1.3909243e-09
8.3329124e-11
6.5730126e-10
1.0905262e-09
8.6955003e-12
2.6656515e-10
1.0265195e-11
2.7674653e-10
1.4887156e-10
7.734035e-10
1.1913143e-09
1.1982187e-10
7.1463816e-10
1.4570323e-09
1.0141029e-10
6.8746677e-10
1.5503751e-09
9.472532e-11
6.7794177e-10
1.5952999e-09
9.1879964e-11
6.7640915e-10
1.6626399e-09
8.7276285e-11
6.6854992e-10
1.6610962e-09
8.7176534e-11
6.676955e-10
1.6494639e-09
8.8102819e-11
6.7080744e-10
1.6772229e-09
8.6032478e-11
6.6513694e-10
1.6408938e-09
8.7816918e-11
6.6519437e-10
1.5888756e-09
9.098136e-11
6.6909464e-10
1.5552668e-09
9.3768232e-11
6.6560759e-10
1.2194046e-09
7.6274936e-12
2.5324558e-10
9.1024021e-12
2.6279106e-10
1.6884175e-10
7.9391052e-10
1.3420282e-09
1.3584503e-10
7.3061512e-10
1.6351476e-09
1.1478509e-10
7.0099728e-10
1.7378331e-09
1.0717888e-10
6.9044231e-10
1.787788e-09
1.0396866e-10
6.8836884e-10
1.8637004e-09
9.8734346e-11
6.7979442e-10
1.8613303e-09
9.8616113e-11
6.7895485e-10
1.848118e-09
9.9680277e-11
6.8216727e-10
1.8797298e-09
9.7311641e-11
6.7624088e-10
1.838229e-09
9.9313602e-11
6.7669549e-10
1.7795026e-09
1.0289753e-10
6.8116411e-10
1.7418756e-09
1.0600323e-10
6.7729518e-10
1.3653748e-09
6.7579016e-12
2.4065659e-10
8.1427497e-12
2.4961408e-10
1.918733e-10
8.2017592e-10
1.5140087e-09
1.5443332e-10
7.5190403e-10
1.837271e-09
1.3034789e-10
7.1919922e-10
1.9506393e-09
1.2168991e-10
7.0737253e-10
2.0063085e-09
1.1807699e-10
7.0463318e-10
2.0920375e-09
1.1211177e-10
6.9518052e-10
2.0886574e-09
1.1196848e-10
6.9435897e-10
2.0736339e-09
1.1320007e-10
6.9769307e-10
2.1096697e-09
1.1047515e-10
6.9145451e-10
2.0622184e-09
1.127134e-10
6.9239861e-10
1.9958378e-09
1.1677201e-10
6.9756238e-10
1.9536076e-09
1.2020016e-10
6.9333771e-10
1.5306428e-09
6.0353223e-12
2.2873755e-10
7.336673e-12
2.371495e-10
2.1837025e-10
8.5344939e-10
1.7083328e-09
1.7588971e-10
7.7964233e-10
2.0666847e-09
1.4833914e-10
7.4308885e-10
2.1922159e-09
1.3847664e-10
7.2971105e-10
2.2543295e-09
1.3441358e-10
7.2616801e-10
2.3513073e-09
1.2760188e-10
7.1565265e-10
2.3466895e-09
1.2742674e-10
7.1485094e-10
2.329589e-09
1.2885822e-10
7.1833401e-10
2.3707079e-09
1.2571238e-10
7.117147e-10
2.3164035e-09
1.2821178e-10
7.132451e-10
2.2412659e-09
1.3281065e-10
7.1924672e-10
2.1938056e-09
1.3657326e-10
7.1473513e-10
1.7177538e-09
5.4244241e-12
2.1743672e-10
6.6490962e-12
2.2534101e-10
2.4881264e-10
8.9500247e-10
1.9282004e-09
2.0057997e-10
8.1496398e-10
2.3271686e-09
1.6905385e-10
7.7368217e-10
2.4665006e-09
1.5780931e-10
7.5843688e-10
2.5358819e-09
1.5323917e-10
7.5394062e-10
2.6456981e-09
1.4544777e-10
7.421562e-10
2.6395857e-09
1.4523343e-10
7.4137455e-10
2.6200993e-09
1.4690126e-10
7.4504053e-10
2.6670657e-09
1.4326132e-10
7.3795883e-10
2.6048596e-09
1.4605235e-10
7.4017599e-10
2.5196923e-09
1.5126823e-10
7.4717348e-10
2.466328e-09
1.5538369e-10
7.4247896e-10
1.9296383e-09
4.9004553e-12
2.0670962e-10
6.0548307e-12
2.1414023e-10
2.8376295e-10
9.4613755e-10
2.1772899e-09
2.2893645e-10
8.5900425e-10
2.6230722e-09
1.9284341e-10
8.1199398e-10
2.778021e-09
1.8001133e-10
7.9452591e-10
2.8555973e-09
1.748673e-10
7.8891461e-10
2.9800343e-09
1.6594259e-10
7.7563051e-10
2.9720976e-09
1.6568079e-10
7.748675e-10
2.9498639e-09
1.6762653e-10
7.7875761e-10
3.0035761e-09
1.6340877e-10
7.711175e-10
2.932238e-09
1.665275e-10
7.7412619e-10
2.8356455e-09
1.724494e-10
7.8229386e-10
2.775606e-09
1.7694123e-10
7.7754598e-10
2.1696649e-09
4.4456953e-12
1.9651759e-10
5.5354854e-12
2.0350527e-10
3.238743e-10
1.0082166e-09
2.4598254e-09
2.6146434e-10
9.1292572e-10
2.959398e-09
2.2012016e-10
8.5905735e-10
3.1319799e-09
2.0546302e-10
8.3896804e-10
3.2187943e-09
1.9966769e-10
8.3206569e-10
3.359902e-09
1.8943236e-10
8.1702299e-10
3.3497145e-09
1.8911366e-10
8.1627552e-10
3.3243326e-09
1.913851e-10
8.2043909e-10
3.3857964e-09
1.8649318e-10
8.1212849e-10
3.3039326e-09
1.8998145e-10
8.160395e-10
3.1943204e-09
1.967122e-10
8.2557016e-10
3.1267265e-09
2.0160822e-10
8.2091462e-10
2.4417022e-09
4.0471621e-12
1.8682669e-10
5.0773878e-12
1.9339948e-10
3.6988746e-10
1.0830182e-09
2.7806597e-09
2.9875038e-10
9.7795604e-10
3.3418971e-09
2.5136388e-10
9.1595531e-10
3.5343534e-09
2.3460745e-10
8.9279684e-10
3.6315787e-09
2.280717e-10
8.8441047e-10
3.7917112e-09
2.1632067e-10
8.6731671e-10
3.7787645e-09
2.1593423e-10
8.6657997e-10
3.74977e-09
2.1858655e-10
8.7107542e-10
3.8201516e-09
2.1290902e-10
8.6196397e-10
3.726143e-09
2.1681532e-10
8.6689635e-10
3.6016753e-09
2.2447343e-10
8.7800445e-10
3.5255255e-09
2.2980523e-10
8.7359517e-10
2.7501895e-09
3.6951209e-12
1.7760707e-10
4.6701798e-12
1.8379047e-10
4.2264246e-10
1.1724574e-09
3.1453642e-09
3.4147356e-10
1.0554307e-09
3.7771788e-09
2.8713025e-10
9.8385809e-10
3.9920035e-09
2.6795807e-10
9.5712491e-10
4.1009574e-09
2.6057961e-10
9.4704137e-10
4.2828166e-09
2.470742e-10
9.2756427e-10
4.2665023e-09
2.4660747e-10
9.2683172e-10
4.233358e-09
2.4970457e-10
9.317278e-10
4.3140087e-09
2.4311232e-10
9.2166406e-10
4.2059751e-09
2.474936e-10
9.2774774e-10
4.0645411e-09
2.5621577e-10
9.4067408e-10
3.9786965e-09
2.6201833e-10
9.3666628e-10
3.1002166e-09
3.3821031e-12
1.6883204e-10
4.3058637e-12
1.7464934e-10
4.8311531e-10
1.2783798e-09
3.5603361e-09
3.9041806e-10
1.1468371e-09
4.2728376e-09
3.2806109e-10
1.064062e-09
4.5128068e-09
3.0610803e-10
1.0331825e-09
4.6349696e-09
2.9776809e-10
1.0211637e-09
4.8416553e-09
2.8223387e-10
9.9892288e-10
4.8212449e-09
2.8167196e-10
9.9818623e-10
4.7833302e-09
2.852882e-10
1.0035635e-09
4.8758148e-09
2.7763185e-10
9.9237149e-10
4.7515735e-09
2.8255119e-10
9.9975095e-10
4.5907483e-09
2.9249641e-10
1.0147681e-09
4.4939148e-09
2.9880783e-10
1.0113129e-09
3.4976165e-09
3.1022589e-12
1.604774e-10
3.9781487e-12
1.6594998e-10
5.5243598e-10
1.4028334e-09
4.0329258e-09
4.4648834e-10
1.2538579e-09
4.8375987e-09
3.7489651e-10
1.1580283e-09
5.1058034e-09
3.497408e-10
1.1223544e-09
5.2428381e-09
3.4030312e-10
1.1081316e-09
5.4779057e-09
3.2242478e-10
1.082691e-09
5.452527e-09
3.2175015e-10
1.0819399e-09
5.4091243e-09
3.2597206e-10
1.0878927e-09
5.5152549e-09
3.170783e-10
1.0753681e-09
5.3722726e-09
3.2260604e-10
1.0842044e-09
5.1892708e-09
3.339559e-10
1.1016213e-09
5.0799778e-09
3.4081857e-10
1.0988639e-09
3.9490708e-09
2.8509179e-12
1.525211e-10
3.6820017e-12
1.5766916e-10
6.3190932e-10
1.5481325e-09
4.5715575e-09
5.1072682e-10
1.3784154e-09
5.4814857e-09
4.2848897e-10
1.2674221e-09
5.7813675e-09
3.9964196e-10
1.2262146e-09
5.9351414e-09
3.8895383e-10
1.2094857e-09
6.2026702e-09
3.6836714e-10
1.1803448e-09
6.1712786e-09
3.6755921e-10
1.1795664e-09
6.1215587e-09
3.7248756e-10
1.1862051e-09
6.2434336e-09
3.62155e-10
1.1721105e-09
6.0787698e-09
3.6837072e-10
1.1825839e-09
5.8703926e-09
3.8133202e-10
1.2027507e-09
5.7469691e-09
3.8879189e-10
1.200832e-09
4.4621848e-09
2.624287e-12
1.4494296e-10
3.4133315e-12
1.4978555e-10
7.2304013e-10
1.7169244e-09
5.1858846e-09
5.843343e-10
1.5227164e-09
6.2160125e-09
4.8981948e-10
1.3941521e-09
6.551404e-09
4.567179e-10
1.3465658e-09
6.7240129e-09
4.4460618e-10
1.3269909e-09
7.028684e-09
4.2088954e-10
1.2935743e-09
6.9900295e-09
4.1992415e-10
1.292753e-09
6.9330342e-09
4.2567633e-10
1.3002067e-09
7.0730835e-09
4.1367078e-10
1.2842661e-09
6.8833247e-09
4.2066492e-10
1.2965787e-09
6.6458985e-09
4.3547514e-10
1.3198932e-09
6.5064461e-09
4.4357937e-10
1.3189503e-09
5.0457568e-09
2.4192397e-12
1.3772423e-10
3.16876e-12
1.4227895e-10
8.2756252e-10
1.9122493e-09
5.8870878e-09
6.686936e-10
1.6893011e-09
7.0544077e-09
5.6001488e-10
1.5404123e-09
7.4295754e-09
5.2201244e-10
1.4854799e-09
7.6233707e-09
5.0827945e-10
1.4626759e-09
7.9705565e-09
4.8094452e-10
1.4243213e-09
7.9231448e-09
4.7979328e-10
1.423438e-09
7.8577665e-09
4.8650611e-10
1.4318579e-09
8.0188048e-09
4.7255516e-10
1.4137504e-09
7.7999882e-09
4.8043048e-10
1.4281291e-09
7.529294e-09
4.9736309e-10
1.455044e-09
7.3716557e-09
5.0615873e-10
1.4552085e-09
5.7098605e-09
2.2331672e-12
1.308476e-10
2.9454628e-12
1.3513084e-10
9.4747431e-10
2.1376023e-09
6.6880329e-09
7.6539689e-10
1.8810982e-09
8.0118318e-09
6.4037333e-10
1.7087281e-09
8.4315519e-09
5.9672591e-10
1.6453419e-09
8.6491808e-09
5.8114561e-10
1.6188761e-09
9.0450483e-09
5.4962665e-10
1.5748203e-09
8.9870954e-09
5.4825624e-10
1.5738521e-09
8.912054e-09
5.5608922e-10
1.5834147e-09
9.0973408e-09
5.3987588e-10
1.562767e-09
8.8448663e-09
5.4874907e-10
1.5794685e-09
8.5360451e-09
5.6811906e-10
1.610501e-09
8.3577489e-09
5.7765233e-10
1.6118953e-09
6.466009e-09
2.0638686e-12
1.2429695e-10
2.7410544e-12
1.2832407e-10
1.0850772e-09
2.3970095e-09
7.6034663e-09
8.7627697e-10
2.1014873e-09
9.1057195e-09
7.3238953e-10
1.9020112e-09
9.5752778e-09
6.8223789e-10
1.8289007e-09
9.8197168e-09
6.6455186e-10
1.7982812e-09
1.0271388e-08
6.2819354e-10
1.7476454e-09
1.0200758e-08
6.2656476e-10
1.7465651e-09
1.0114566e-08
6.3570388e-10
1.7574758e-09
1.0327892e-08
6.1685925e-10
1.7338551e-09
1.0036392e-08
6.2686256e-10
1.7531706e-09
9.6838481e-09
6.4903283e-10
1.7889123e-09
9.4821114e-09
6.5934711e-10
1.79164e-09
7.3274455e-09
1.9094695e-12
1.1805715e-10
2.5534998e-12
1.2184258e-10
1.2430228e-09
2.6951106e-09
8.6503468e-09
1.0034435e-09
2.3543605e-09
1.0356193e-08
8.3778227e-10
2.1236166e-09
1.0881429e-08
7.8013375e-10
2.0393242e-09
1.1155989e-08
7.6004673e-10
2.003992e-09
1.1671598e-08
7.1808919e-10
1.9457564e-09
1.1585747e-08
7.1615581e-10
1.9445302e-09
1.1486694e-08
7.2681848e-10
1.9570323e-09
1.1732443e-08
7.0491235e-10
1.9299291e-09
1.1395708e-08
7.1619566e-10
1.9521867e-09
1.0993052e-08
7.4158449e-10
1.9933161e-09
1.0764713e-08
7.5272356e-10
1.9974529e-09
8.3093175e-09
1.7683611e-12
1.1211389e-10
2.3810491e-12
1.1567129e-10
1.4243734e-09
3.0372517e-09
9.8481727e-09
1.1493248e-09
2.6441988e-09
1.1786326e-08
9.5852832e-10
2.3774009e-09
1.237373e-08
8.9223427e-10
2.2802467e-09
1.2682124e-08
8.6940897e-10
2.2395682e-09
1.3271001e-08
8.2097131e-10
2.1725516e-09
1.3166908e-08
8.1867901e-10
2.1711389e-09
1.3053016e-08
8.3111871e-10
2.1855169e-09
1.3336256e-08
8.0565075e-10
2.1543377e-09
1.2947078e-08
8.1838364e-10
2.1799078e-09
1.2486957e-08
8.4747226e-10
2.2272011e-09
1.2228426e-08
8.5947977e-10
2.2327977e-09
9.4288649e-09
1.6391528e-12
1.0645371e-10
2.2221859e-12
1.0979597e-10
1.6326413e-09
3.4295883e-09
1.1219411e-08
1.3167153e-09
2.9761608e-09
1.3422636e-08
1.0968971e-09
2.6677907e-09
1.4079402e-08
1.0206309e-09
2.5558439e-09
1.4425791e-08
9.946823e-10
2.5091004e-09
1.5098657e-08
9.3874543e-10
2.4319378e-09
1.4972732e-08
9.3603062e-10
2.4302896e-09
1.484172e-08
9.5054219e-10
2.4468771e-09
1.5168311e-08
9.2093204e-10
2.4109302e-09
1.4718359e-08
9.3530763e-10
2.4402324e-09
1.4192357e-08
9.6864954e-10
2.4945794e-09
1.3899551e-08
9.8156214e-10
2.501657e-09
1.0705905e-08
1.5206356e-12
1.0106385e-10
2.075588e-12
1.0420314e-10
1.8718771e-09
3.8792018e-09
1.2789952e-08
1.5088343e-09
3.356176e-09
1.5295647e-08
1.2555005e-09
2.9998782e-09
1.6029777e-08
1.1677311e-09
2.8709189e-09
1.6418825e-08
1.1382186e-09
2.8172923e-09
1.7187964e-08
1.0736045e-09
2.7284063e-09
1.703598e-08
1.0703927e-09
2.7264646e-09
1.6885209e-08
1.0873189e-09
2.7456507e-09
1.7261939e-08
1.0528916e-09
2.7041311e-09
1.6741496e-08
1.0691256e-09
2.7376379e-09
1.6139861e-08
1.1073572e-09
2.8000558e-09
1.5808137e-08
1.1212028e-09
2.8086068e-09
1.2163174e-08
1.4117526e-12
9.5932189e-11
1.9400959e-12
9.8879953e-11
2.1467562e-09
4.3942433e-09
1.458952e-08
1.7293905e-09
3.791054e-09
1.7440479e-08
1.4373408e-09
3.3795107e-09
1.8260754e-08
1.3362995e-09
3.2309875e-09
1.8697652e-08
1.3027238e-09
3.1695515e-09
1.9577266e-08
1.2280641e-09
3.0671188e-09
1.9394074e-08
1.2242668e-09
3.0648135e-09
1.9220468e-08
1.2440104e-09
3.0870542e-09
1.9655287e-08
1.2039763e-09
3.0390223e-09
1.9052976e-08
1.2223121e-09
3.0772651e-09
1.8364509e-08
1.2661664e-09
3.1489197e-09
1.7988585e-08
1.2809623e-09
3.158902e-09
1.382673e-08
1.3115755e-12
9.1047168e-11
1.8146878e-12
9.3814235e-11
2.4626648e-09
4.9841044e-09
1.6652283e-08
1.9826538e-09
4.2886298e-09
1.9897421e-08
1.6458688e-09
3.8134104e-09
2.0813458e-08
1.5295117e-09
3.642389e-09
2.1304016e-08
1.4913029e-09
3.5720915e-09
2.2310418e-08
1.4050116e-09
3.4539995e-09
2.2089957e-08
1.4005249e-09
3.4512463e-09
2.1889973e-08
1.4235555e-09
3.4770787e-09
2.2392047e-08
1.3769958e-09
3.4214326e-09
2.1694718e-08
1.3977091e-09
3.4650133e-09
2.0906551e-08
1.44803e-09
3.547244e-09
2.048043e-08
1.4637781e-09
3.5585686e-09
1.5726437e-08
1.2192854e-12
8.6397761e-11
1.6984592e-12
8.8994387e-11
2.8258088e-09
5.6596065e-09
1.9017559e-08
2.2735384e-09
4.8579245e-09
2.271274e-08
1.8850521e-09
4.3093084e-09
2.373521e-08
1.7510176e-09
4.1124054e-09
2.4285928e-08
1.7075255e-09
4.0320479e-09
2.5437846e-08
1.6077647e-09
3.8958458e-09
2.5172946e-08
1.6024668e-09
3.8925451e-09
2.4942485e-08
1.629332e-09
3.9225978e-09
2.5522443e-08
1.5751774e-09
3.8580504e-09
2.471481e-08
1.5985793e-09
3.9076514e-09
2.3812142e-08
1.6563384e-09
4.0019965e-09
2.3329006e-08
1.673021e-09
4.0145146e-09
1.7896524e-08
1.1341571e-12
8.1973439e-11
1.5906064e-12
8.4409322e-11
3.2433348e-09
6.4332175e-09
2.1730685e-08
2.6077011e-09
5.5093225e-09
2.5939742e-08
2.1594536e-09
4.8760827e-09
2.7080366e-08
2.0050132e-09
4.6493984e-09
2.7698493e-08
1.955496e-09
4.5576142e-09
2.9017462e-08
1.8401358e-09
4.4004597e-09
2.8699615e-08
1.8338835e-09
4.3964953e-09
2.8433935e-08
1.8652219e-09
4.431504e-09
2.9104104e-08
1.8022277e-09
4.3565498e-09
2.8168399e-08
1.8286695e-09
4.4129454e-09
2.7134202e-08
1.8949856e-09
4.5211714e-09
2.6586307e-08
1.9125583e-09
4.534659e-09
2.0376231e-08
1.0555461e-12
7.7764128e-11
1.4904126e-12
8.004845e-11
3.7234842e-09
7.3192849e-09
2.4843862e-08
2.9916561e-09
6.254768e-09
2.9639747e-08
2.4743211e-09
5.5239288e-09
3.0911358e-08
2.2963217e-09
5.2629714e-09
3.1604971e-08
2.2399338e-09
5.1582004e-09
3.3115749e-08
2.1065051e-09
4.9767943e-09
3.273487e-08
2.0991302e-09
4.9720332e-09
3.2428486e-08
2.1356867e-09
5.0128577e-09
3.3203162e-08
2.0624038e-09
4.9257335e-09
3.2118729e-08
2.0922818e-09
4.9898051e-09
3.0933413e-08
2.1684431e-09
5.113939e-09
3.0311961e-08
2.1868282e-09
5.1280789e-09
2.3210542e-08
9.8287773e-13
7.3760182e-11
1.3972361e-12
7.5901648e-11
4.2757588e-09
8.3343297e-09
2.8417196e-08
3.4329057e-09
7.1079944e-09
3.3883271e-08
2.8356903e-09
6.264552e-09
3.5299882e-08
2.6304883e-09
5.9641537e-09
3.6077977e-08
2.566265e-09
5.8446125e-09
3.7809032e-08
2.4119055e-09
5.6351202e-09
3.7353173e-08
2.4032108e-09
5.6294167e-09
3.6999741e-08
2.4458544e-09
5.677059e-09
3.7895506e-08
2.3605954e-09
5.5756966e-09
3.663833e-08
2.3943564e-09
5.6484531e-09
3.5279358e-08
2.4818466e-09
5.790818e-09
3.457435e-08
2.5009231e-09
5.8051794e-09
2.6451029e-08
9.1563802e-13
6.9952354e-11
1.310501e-12
7.1959221e-11
4.9111111e-09
9.4973799e-09
3.2519905e-08
3.9400908e-09
8.0847933e-09
3.8751424e-08
3.2505038e-09
7.1113861e-09
4.0328281e-08
3.0138878e-09
6.7656169e-09
4.1200868e-08
2.9407295e-09
6.6292585e-09
4.3184933e-08
2.7621202e-09
6.387218e-09
4.2639943e-08
2.7518741e-09
6.3804275e-09
4.2232136e-08
2.8016187e-09
6.4360474e-09
4.3268217e-08
2.7024186e-09
6.3180149e-09
4.1810377e-08
2.7405665e-09
6.4006267e-09
4.0251829e-08
2.8410945e-09
6.5638776e-09
3.9451904e-08
2.8606872e-09
6.5778841e-09
3.0156814e-08
8.5336586e-13
6.6331782e-11
1.2296889e-12
6.8211867e-11
5.6421685e-09
1.0830361e-08
3.7231699e-08
4.5231654e-09
9.2033236e-09
4.4337493e-08
3.7267475e-09
8.0798429e-09
4.6091122e-08
3.4538497e-09
7.6819342e-09
4.7069335e-08
3.3705024e-09
7.5263904e-09
4.9344036e-08
3.1637949e-09
7.2465938e-09
4.8693168e-08
3.1517256e-09
7.2386056e-09
4.8222532e-08
3.209754e-09
7.3035314e-09
4.9421214e-08
3.0943245e-09
7.1659541e-09
4.7730249e-08
3.137427e-09
7.2598075e-09
4.5942325e-08
3.2529616e-09
7.4469646e-09
4.5034571e-08
3.2728272e-09
7.4598464e-09
3.4395678e-08
7.956466e-13
6.2889965e-11
1.1543317e-12
6.4650671e-11
6.4834905e-09
1.2358559e-08
4.2644378e-08
5.1935955e-09
1.0484464e-08
5.0748771e-08
4.273608e-09
9.1875833e-09
5.2696995e-08
3.9588013e-09
8.7298828e-09
5.3793235e-08
3.8638355e-09
8.5523766e-09
5.6401808e-08
3.6245666e-09
8.2287123e-09
5.5625237e-08
3.6103556e-09
8.219528e-09
5.5082048e-08
3.6780475e-09
8.2952491e-09
5.6469148e-08
3.5437238e-09
8.134698e-09
5.4507303e-08
3.5924207e-09
8.241498e-09
5.2455769e-08
3.7252297e-09
8.4559622e-09
5.1425501e-08
3.7450402e-09
8.4666854e-09
3.9245316e-08
7.4210633e-13
5.9618752e-11
1.0840058e-12
6.1267087e-11
7.4518665e-09
1.4111186e-08
4.8863671e-08
5.9645905e-09
1.1952218e-08
5.8108649e-08
4.9016534e-09
1.0454792e-08
6.0270567e-08
4.538433e-09
9.9288157e-09
6.149868e-08
4.4302189e-09
9.7260136e-09
6.4490779e-08