/*--------------------------------*- C++ -*----------------------------------*\
  =========                 |
  \\      /  F ield         | OpenFOAM: The Open Source CFD Toolbox
   \\    /   O peration     | Website:  https://openfoam.org
    \\  /    A nd           | Version:  7
     \\/     M anipulation  |
\*---------------------------------------------------------------------------*/
FoamFile
{
    version     2.0;
    format      ascii;
    class       volScalarField;
    location    "2000/fluid";
    object      p_rgh;
}
// * * * * * * * * * * * * * * * * * * * * * * * * * * * * * * * * * * * * * //

dimensions      [1 -1 -2 0 0 0 0];

internalField   nonuniform List<scalar> 
13296
(
4.8670817
4.86163
4.8485202
4.82577
4.7907573
4.7380483
4.6715898
4.6078324
4.5586105
4.5198886
4.4789664
4.432273
4.3906271
4.3630901
4.3450566
4.32373
4.2950559
4.2690496
4.2545953
4.2476229
4.2359046
4.2156637
4.1968929
4.1886064
4.1870911
4.1804423
4.1651094
4.1511772
4.1477515
4.1512284
4.1495033
4.1386934
4.1283851
4.1274817
4.1325262
4.1316295
4.121154
4.1108343
4.1096811
4.1143305
4.1130451
4.1023692
4.0922362
4.0917287
4.0974181
4.0972827
4.0874984
4.07757
4.0763642
4.0804298
4.0779463
4.0652623
4.0520694
4.0473037
4.0474666
4.0408761
4.0240234
4.0068337
3.9982907
3.9947548
3.9844703
3.9640173
3.9439646
3.9349585
3.9363655
3.9397397
4.873273
4.8674187
4.8547348
4.833702
4.8026763
4.7472717
4.6693368
4.5976569
4.5515095
4.5217917
4.4831712
4.428693
4.3808341
4.3566171
4.3476087
4.3289632
4.2931135
4.2609904
4.2494315
4.2510916
4.2418951
4.2145319
4.189556
4.1838965
4.1907962
4.1865316
4.164036
4.1438321
4.1429181
4.1549856
4.1558508
4.1382299
4.1217839
4.1232714
4.1367644
4.1382942
4.1209148
4.1043904
4.1055697
4.1185654
4.1195862
4.1018727
4.0854842
4.0873482
4.1015786
4.1039939
4.0874598
4.0714217
4.0726039
4.0850622
4.0850136
4.0654502
4.0461094
4.0437974
4.0522236
4.0479873
4.0240827
4.0007187
3.9947482
3.9995206
3.9915355
3.9636113
3.9362901
3.9278501
3.9352551
3.9415147
4.8774338
4.8844319
4.8694443
4.8521375
4.8399942
4.7781708
4.656961
4.5588801
4.5270612
4.5339187
4.5034285
4.4158108
4.3448015
4.3337662
4.3605969
4.3516819
4.2855469
4.2303513
4.2299235
4.2661146
4.2663352
4.2094289
4.1611243
4.1653086
4.2064824
4.2111166
4.1592172
4.1154405
4.1236165
4.1706814
4.181017
4.135349
4.0956645
4.1057062
4.1536798
4.1642063
4.1185917
4.0786955
4.088323
4.1355027
4.1451878
4.0987834
4.0588499
4.0692093
4.1182444
4.130014
4.0857461
4.0465815
4.0563134
4.1029697
4.1118999
4.0641677
4.0217013
4.0283965
4.0705069
4.0750145
4.0222227
3.9757174
3.9794634
4.0178525
4.018775
3.9610173
3.9078002
3.9033402
3.9355282
3.9484506
4.8487325
4.9253661
4.8828793
4.8645853
4.9248375
4.8566847
4.5957055
4.4417101
4.4592479
4.5831379
4.5757602
4.3678985
4.2388869
4.2655728
4.4094397
4.4261901
4.2519269
4.1370529
4.1647804
4.317722
4.3421375
4.1817968
4.0727926
4.1008652
4.258689
4.2868071
4.1329023
4.0273393
4.0564713
4.2222487
4.257272
4.1140149
4.0126021
4.0418101
4.2068757
4.2412184
4.0980211
3.9963781
4.0252436
4.1888702
4.221814
4.0765344
3.9744803
4.0038251
4.1709025
4.2071449
4.0666299
3.9660025
3.994969
4.1574877
4.1900219
4.0448592
3.9416052
3.9695837
4.1258882
4.1533708
4.000672
3.8939773
3.9214049
4.0736937
4.0981964
3.9397237
3.8231826
3.8351107
3.9564366
3.9656418
4.6338126
5.059223
4.8284232
4.7880701
5.1037197
5.0438966
4.2161677
4.0796866
4.2097265
4.7417584
4.7776104
4.0650374
3.9134981
3.9990651
4.5627112
4.6266568
4.0024286
3.8424663
3.9025575
4.4694291
4.542037
3.9531845
3.7897345
3.8388429
4.4095129
4.4864175
3.9105856
3.7447184
3.7852327
4.3703995
4.4571972
3.9094216
3.7420926
3.7781912
4.3560201
4.4409334
3.8945889
3.7273841
3.7640605
4.3386289
4.4213529
3.8679235
3.7004874
3.7358836
4.3190842
4.4070053
3.8681676
3.7010032
3.7376143
4.3076216
4.3896947
3.842671
3.6772738
3.7199564
4.2779794
4.3528713
3.7887569
3.6253415
3.674402
4.2269093
4.2988736
3.7310602
3.5602216
3.6050224
4.0779783
3.976143
3.8804247
3.4657326
4.0621439
0.81361607
2.9127496
3.0098953
1.0447319
2.8363809
2.7970786
1.2767612
2.8453198
2.739442
1.3405026
2.8212455
2.6860795
1.3206754
2.7723169
2.6084562
1.4224179
2.8035628
2.631338
1.4173727
2.7937492
2.6249192
1.3552839
2.7508532
2.5746882
1.4217575
2.7790344
2.61135
1.3866514
2.7607601
2.6143485
1.2846808
2.6991833
2.5713583
1.2823322
2.6905439
2.6446919
3.2208848
3.7516819
3.6674874
3.7741893
1.9668481
2.3341308
2.5577617
1.9842261
2.2840251
2.4222568
2.0686859
2.3213137
2.4132502
2.0726069
2.3060547
2.378687
2.0256132
2.2500563
2.3086261
2.0849207
2.2959561
2.345088
2.0785013
2.2891852
2.3392958
2.0242543
2.2372497
2.2860221
2.0727293
2.2802608
2.3291709
2.0552023
2.2686083
2.3275511
1.9827979
2.2057702
2.2756207
2.0062096
2.2389524
2.3423828
3.2738087
3.6222746
3.6019819
3.6295452
2.0523674
2.176663
2.2990308
2.0328953
2.1293884
2.199643
2.0921368
2.1707677
2.2132429
2.0851365
2.1563255
2.1871173
2.0307593
2.0976684
2.1197024
2.0840717
2.1462045
2.162794
2.0780384
2.1402208
2.1574726
2.0234996
2.0860868
2.1023304
2.0713542
2.1325539
2.149203
2.0591374
2.1232457
2.1461582
1.9928423
2.0609306
2.0904941
2.0293136
2.1042405
2.1549418
3.2002175
3.521208
3.5157889
3.5208906
2.0496466
2.0907952
2.1494336
2.0105909
2.0388913
2.0713919
2.0585841
2.0793111
2.0979912
2.0465004
2.0641743
2.0770309
1.9879965
2.0037235
2.0120918
2.0388058
2.0529796
2.0586114
2.0331109
2.0473859
2.0533681
1.9780626
1.9922554
1.9976866
2.0262033
2.0402327
2.0459285
2.0170225
2.03241
2.0413416
1.953886
1.9708564
1.9831655
1.9975585
2.0187807
2.041626
3.1179092
3.4248947
3.4242105
3.4238979
2.0063479
2.0218302
2.0475654
1.9564595
1.966159
1.9787146
1.9997264
2.0060719
2.0118324
1.9856784
1.9906072
1.9934108
1.9252694
1.9291349
1.9295138
1.9756
1.978807
1.9778636
1.9701597
1.973441
1.9727047
1.9145845
1.9177515
1.9166531
1.9633818
1.9665918
1.9657475
1.9556801
1.9596271
1.9605342
1.8937851
1.8985343
1.9012061
1.9410857
1.9481093
1.9563128
3.0345994
3.3316165
3.332453
3.3308294
1.9500675
1.9560265
1.9656746
1.8934887
1.8965845
1.9000245
1.9347363
1.9365099
1.9363141
1.9198973
1.9210985
1.9193746
1.858367
1.8591091
1.8562124
1.9088786
1.9093763
1.9059422
1.9036376
1.9041766
1.9008432
1.8475924
1.8480559
1.8445326
1.8970944
1.897618
1.8942606
1.8902574
1.8911169
1.8885644
1.8289716
1.8301569
1.8284535
1.8782323
1.880461
1.8820814
2.9523786
3.2404208
3.2420086
3.2401649
1.8890701
1.8909274
1.8929531
1.8280167
1.8284341
1.8273915
1.8686579
1.8688387
1.8660741
1.8536456
1.8536932
1.8503182
1.7914449
1.791357
1.7874504
1.8424253
1.8422924
1.8382003
1.837356
1.8372402
1.8332013
1.7808806
1.7807247
1.7765733
1.8310807
1.8309724
1.8269448
1.8248048
1.8248045
1.821149
1.7637735
1.7638556
1.7605589
1.8140016
1.8144328
1.8129977
2.8718242
3.1510549
3.1531608
3.1513901
1.8264348
1.8262971
1.8246169
1.7623085
1.761523
1.7584652
1.8031236
1.8026829
1.7990397
1.7882501
1.7879017
1.7840536
1.7256002
1.725289
1.7212203
1.7771814
1.7769277
1.7728457
1.7722683
1.7720171
1.7679638
1.7153861
1.7151175
1.7109923
1.7662746
1.7660414
1.7620152
1.7604071
1.7601564
1.7562839
1.6994647
1.6991668
1.6954203
1.7501272
1.7497183
1.7466193
2.7929944
3.0633425
3.0659532
3.0642922
1.7636981
1.7624097
1.7586168
1.6972377
1.6959777
1.6921862
1.7387175
1.7379634
1.7341564
1.7241267
1.723636
1.7197935
1.6611409
1.6607892
1.6568834
1.7133942
1.7131516
1.7093182
1.7086286
1.70838
1.7045621
1.651352
1.6510997
1.6472328
1.7029239
1.7026975
1.6989137
1.6973808
1.6970692
1.6933248
1.6364379
1.6360028
1.6322702
1.6872688
1.6864289
1.682839
2.7158492
2.97696
2.9804375
2.9785371
1.7014254
1.6994511
1.6948603
1.6331823
1.6317718
1.6277922
1.6755921
1.6747147
1.6710186
1.6614127
1.6608033
1.6572084
1.5981474
1.5977666
1.5941703
1.6511025
1.650879
1.6473839
1.6464811
1.6462421
1.6427577
1.5888148
1.5885861
1.5850631
1.6410679
1.6408546
1.6374057
1.6358141
1.6354477
1.6319959
1.5748266
1.5742707
1.5707875
1.6256269
1.6246437
1.6209954
2.6404036
2.8922012
2.8963686
2.8943473
1.6396276
1.6374108
1.6326302
1.5702851
1.5688812
1.5649653
1.6137742
1.6129126
1.6094252
1.6000633
1.5994484
1.5961407
1.5365955
1.536166
1.5329401
1.5902884
1.5900021
1.5869096
1.5858051
1.5855052
1.5824166
1.5277568
1.5274662
1.5243509
1.580686
1.5804097
1.5773581
1.5756729
1.5752598
1.5721546
1.5145789
1.5140169
1.5108174
1.5652891
1.5642932
1.5607658
2.5664446
2.809038
2.8135781
2.8117612
1.5784639
1.5762918
1.5716093
1.5085872
1.5072649
1.5035324
1.5532668
1.5524705
1.5492445
1.5400528
1.5394862
1.5364749
1.4763944
1.4759947
1.4731008
1.5308377
1.5305675
1.5278212
1.5264901
1.526208
1.5234617
1.4680632
1.4677895
1.4650237
1.5216656
1.5214055
1.5186957
1.5168752
1.5164946
1.5137043
1.4556684
1.4551509
1.4522434
1.5062568
1.5053133
1.5019865
2.4937395
2.7271754
2.7320553
2.7304699
1.5182078
1.5161235
1.5116668
1.4480819
1.4468744
1.4433841
1.4940324
1.4933173
1.4903718
1.4813414
1.4808462
1.4781273
1.4175088
1.4171748
1.4145812
1.4727051
1.4724895
1.4700424
1.4684922
1.468266
1.4658174
1.4096879
1.4094695
1.4070051
1.4639616
1.4637553
1.4613414
1.4593866
1.4590699
1.4565699
1.3980534
1.3976048
1.3949841
1.448501
1.4476396
1.4445511
2.4222737
2.6464967
2.6517236
2.6503545
1.4588767
1.4569148
1.4527337
1.3887397
1.3876534
1.3844307
1.4360254
1.4354079
1.4327372
1.4238768
1.4234656
1.4210158
1.3598791
1.3596128
1.35729
1.4158277
1.4156675
1.4134869
1.4117487
1.411579
1.409396
1.3525683
1.3524056
1.3502096
1.4075104
1.4073585
1.4052083
1.4031464
1.4028966
1.400659
1.3416799
1.341311
1.3389531
1.3919742
1.3912044
1.3883705
2.3519607
2.5669092
2.5724987
2.5713217
1.400463
1.3986457
1.3947627
1.3305158
1.3295554
1.3266071
1.3791921
1.3786729
1.3762561
1.3675945
1.36726
1.3650572
1.3034371
1.3032316
1.301154
1.3601359
1.3600252
1.3580836
1.3561897
1.3560705
1.354126
1.2966351
1.2965221
1.2945666
1.3522419
1.3521386
1.3502249
1.3480857
1.3478952
1.3458955
1.2864815
1.2861847
1.2840681
1.3366234
1.335944
1.3333683
2.2827069
2.4883297
2.4942977
2.4932887
1.3429509
1.341287
1.3377134
1.2733712
1.2725429
1.2698539
1.3234698
1.323038
1.3208563
1.312428
1.3121606
1.3101838
1.248115
1.2479623
1.2461064
1.3055607
1.3054924
1.3037653
1.3017462
1.3016704
1.2999402
1.2418192
1.2417491
1.2400094
1.2980869
1.2980251
1.2963236
1.2941355
1.2939961
1.2922118
1.2323907
1.2321569
1.2302606
1.2823992
1.2818225
1.2794877
2.2144214
2.4106809
2.417042
2.4161789
1.2863174
1.2848027
1.2815401
1.2172559
1.2165466
1.2141011
1.2687962
1.2684407
1.266475
1.2583123
1.2581028
1.256332
1.1938469
1.1937393
1.1920837
1.252035
1.2520027
1.2504679
1.2483512
1.2483121
1.246774
1.1880541
1.1880201
1.1864739
1.2449779
1.2449513
1.24344
1.2412288
1.2411329
1.2395431
1.1793416
1.1791621
1.1774662
1.2292436
1.2287599
1.226648
2.1470188
2.3338905
2.3406574
2.3399204
1.2305398
1.2291831
1.2262205
1.1621168
1.1615121
1.1592944
1.2151103
1.2148209
1.2130533
1.2051846
1.2050251
1.2034412
1.1405693
1.1405
1.1390248
1.1994948
1.1994924
1.1981297
1.1959404
1.1959319
1.194566
1.1352757
1.1352719
1.1338988
1.1928507
1.1928532
1.191512
1.1893014
1.1892423
1.1878275
1.127271
1.1271381
1.1256237
1.1770956
1.1766929
1.1747874
2.08042
2.2578908
2.2650745
2.2644462
1.1755928
1.1743951
1.1717067
1.1079015
1.1073884
1.1053827
1.1623538
1.1621214
1.1605351
1.152985
1.1528682
1.1514531
1.0882216
1.0881846
1.0868714
1.1478786
1.147901
1.1466919
1.1444524
1.1444693
1.1432572
1.0834229
1.0834441
1.0822256
1.1416435
1.1416702
1.1404808
1.1382919
1.1382639
1.1370059
1.0761181
1.0760249
1.0746742
1.1258956
1.1255631
1.1238486
2.0145538
2.1826187
2.1902287
2.1896938
1.1214414
1.1203899
1.117956
1.054559
1.0541259
1.0523166
1.1104706
1.1102875
1.1088665
1.1016559
1.1015755
1.1003127
1.0367461
1.0367363
1.035568
1.0971283
1.0971709
1.0960986
1.0938289
1.0938667
1.0927916
1.0324375
1.0324791
1.0313983
1.0912981
1.0913444
1.0902902
1.0881422
1.08814
1.0870222
1.0258252
1.0257655
1.0245622
1.0755866
1.0753149
1.0737762
1.9493524
2.1080156
2.1160597
2.1156048
1.0680482
1.0671324
1.0649346
1.0020396
1.0016766
1.0000482
1.0594074
1.0592667
1.0579959
1.0511431
1.0510935
1.0499677
0.98608818
0.98610106
0.98506202
1.0471887
1.0472478
1.0462971
1.0440149
1.0440697
1.0431164
0.98226455
0.98232281
0.98136433
1.0417592
1.0418214
1.0408872
1.0387969
1.0388161
1.0378234
0.97633744
0.97630596
0.97523538
1.0261137
1.0258946
1.0245171
1.8847518
2.0340269
2.0425118
2.0421255
1.015373
1.0145971
1.0126098
0.95029579
0.94999409
0.94853162
1.0091135
1.0090092
1.0078744
1.001395
1.0013713
1.0003689
0.93619603
0.93622747
0.93530369
0.99800774
0.99807988
0.99723688
0.99495835
0.99502662
0.99418114
0.93285217
0.93292364
0.9320736
0.99297462
0.99304939
0.99222139
0.99020412
0.9902408
0.98935968
0.92760319
0.9275954
0.92664395
0.97742452
0.9772511
0.97602083
1.8206952
1.9606021
1.9695335
1.9692057
0.96338682
0.96275554
0.96094939
0.899282
0.89903379
0.89772275
0.95954097
0.95946777
0.95845573
0.95236309
0.95236113
0.95146946
0.88702093
0.88706741
0.88624645
0.94953667
0.94961864
0.94887121
0.94661024
0.94668877
0.94593914
0.88415155
0.88423301
0.88347914
0.94489557
0.94497968
0.94424598
0.94231488
0.9423656
0.94158404
0.87957366
0.87958567
0.87874095
0.92946938
0.92933547
0.92823915
1.7571302
1.8876979
1.8970771
1.8967992
0.91206581
0.91154364
0.90991789
0.8489547
0.84875307
0.84757973
0.91064438
0.91059766
0.9096961
0.90400153
0.90401777
0.90322528
0.83851711
0.83857548
0.83784626
0.90172907
0.90181868
0.90115598
0.89892436
0.89901085
0.89834625
0.83611641
0.83620563
0.83553701
0.89747553
0.89756693
0.8969168
0.8950833
0.89514502
0.89445219
0.83220296
0.8322315
0.83148221
0.8822011
0.8821012
0.8811264
1.69401
1.8152682
1.8250989
1.824863
0.86137319
0.86093861
0.85948306
0.79927251
0.79911136
0.79806279
0.86238103
0.86235671
0.86155436
0.8562673
0.85629869
0.85559488
0.79064142
0.79070922
0.79006164
0.85454182
0.85463715
0.85404964
0.85185747
0.85195001
0.85136088
0.78870362
0.78879867
0.78820571
0.85067147
0.85076824
0.85019224
0.84846602
0.84853652
0.84792253
0.78544847
0.78549011
0.78482593
0.83557508
0.83550444
0.83464008
1.6312929
1.7432735
1.7535598
1.7533579
0.81127425
0.81091273
0.80961495
0.75019619
0.75007012
0.74913434
0.81471069
0.81470524
0.81399178
0.80912052
0.80916377
0.80853907
0.74335323
0.74342856
0.74285361
0.80793469
0.80803401
0.80751317
0.80536939
0.80546621
0.80494402
0.74187301
0.74197216
0.7414463
0.80444317
0.80454362
0.80403331
0.80242263
0.80249999
0.80195604
0.73926985
0.73932184
0.73873337
0.78954923
0.7895033
0.7887401
1.56894
1.6716772
1.6824244
1.6822502
0.76173554
0.76143506
0.76028135
0.70168859
0.70159286
0.70075892
0.76759561
0.76760594
0.76697203
0.76252296
0.76257586
0.76202152
0.69661495
0.69669601
0.69618561
0.76186996
0.76197182
0.76151005
0.75942239
0.75952202
0.75905914
0.69558687
0.69568864
0.69522225
0.75875293
0.75885564
0.7584035
0.75691553
0.75699801
0.75651626
0.69362896
0.69368936
0.6931682
0.74408412
0.7440575
0.74338206
1.5069157
1.6004453
1.6116546
1.6115041
0.71272555
0.71247605
0.71145044
0.65371464
0.65364506
0.65290309
0.7210004
0.72102378
0.72046116
0.71643916
0.71649981
0.71600813
0.65039126
0.6504765
0.65002344
0.71631233
0.71641551
0.71600606
0.71398119
0.71408239
0.71367205
0.64980991
0.64991308
0.64949936
0.71356549
0.71366928
0.71326866
0.71190949
0.71199563
0.71156915
0.64849067
0.64855764
0.64809655
0.69914373
0.69913419
0.69853823
1.4451893
1.5295465
1.5412173
1.5410879
0.66421511
0.66401079
0.66310185
0.60624123
0.6061941
0.60553637
0.67489169
0.67492597
0.67442771
0.67083606
0.67090278
0.67046713
0.60464908
0.60473721
0.60433511
0.67122881
0.67133233
0.67096928
0.66901282
0.66911456
0.66875087
0.60450914
0.60461273
0.60424569
0.66884793
0.66895183
0.66859695
0.66737155
0.66746004
0.6670834
0.60382196
0.60389379
0.60348731
0.65469434
0.65469968
0.65417414
1.3837323
1.4589533
1.4710856
1.4709753
0.61617614
0.61601189
0.61520685
0.55923727
0.55920811
0.55862474
0.62923829
0.62928104
0.62884089
0.62568263
0.62575375
0.62536921
0.55935748
0.5594474
0.55909101
0.62658858
0.62669151
0.62637028
0.62448645
0.62458773
0.6242663
0.55965374
0.55975687
0.55943166
0.62456947
0.62467241
0.62435919
0.62327095
0.62335976
0.62302719
0.55959208
0.55966608
0.55930647
0.61070428
0.61072101
0.61025711
1.3225184
1.3886399
1.4012336
1.4011398
0.56858159
0.56845206
0.56773871
0.51267417
0.5126602
0.51214275
0.58401147
0.58405995
0.5836695
0.58094998
0.58102284
0.58068164
0.51448752
0.51457777
0.51426256
0.58236263
0.58246297
0.582179
0.5803729
0.58047152
0.58018719
0.51521496
0.51531598
0.51502848
0.58070046
0.58080013
0.58052303
0.57957793
0.57966533
0.57937136
0.51577224
0.515847
0.51552954
0.56713999
0.56716771
0.56676085
1.2615242
1.3185817
1.3316374
1.3315576
0.52140594
0.52130589
0.52067513
0.46652555
0.46652554
0.46606763
0.53918502
0.53923822
0.53889307
0.53661084
0.53668455
0.53638322
0.47001153
0.47009995
0.46982038
0.53852
0.53861874
0.53836862
0.53664138
0.53673893
0.536489
0.4711623
0.4712611
0.47100721
0.5372103
0.53730936
0.53706667
0.53626304
0.53635169
0.53609472
0.47233231
0.47240988
0.47213177
0.52397607
0.52401248
0.52365703
1.2007283
1.2487569
1.2622748
1.262207
0.47462569
0.47455014
0.47399205
0.42076637
0.42077829
0.4203722
0.49473103
0.49478918
0.494485
0.49263674
0.49271353
0.49244913
0.42590087
0.42599009
0.4257449
0.49504054
0.49513781
0.49491905
0.49327264
0.49336865
0.49314994
0.42747308
0.42757077
0.42734862
0.49408202
0.49417883
0.49396634
0.49330895
0.49339674
0.49317121
0.42925371
0.42933239
0.42908807
0.48118804
0.48122861
0.48091804
1.1401111
1.1791463
1.1931256
1.1930683
0.428216
0.4281604
0.42766629
0.37537291
0.37539448
0.37503429
0.45062773
0.4506905
0.45042258
0.44901149
0.44908914
0.44885635
0.38213916
0.38222753
0.38201217
0.45190403
0.45199864
0.45180627
0.45024566
0.45033916
0.45014669
0.38412866
0.38422372
0.38402853
0.45129271
0.45138689
0.45120006
0.45069232
0.4507786
0.4505809
0.38651414
0.38659253
0.38637868
0.4387506
0.43879373
0.43852241
1.0796546
1.1097315
1.1241709
1.1241229
0.38215213
0.38211504
0.38167856
0.33031976
0.33035069
0.3300328
0.40685708
0.40692203
0.40668687
0.40571286
0.4057904
0.40558604
0.33870506
0.33879201
0.33860214
0.40908831
0.40918039
0.40901139
0.40753831
0.40762926
0.40746035
0.34110711
0.34119972
0.34102781
0.40882079
0.40891167
0.40874783
0.40839124
0.40847487
0.40830155
0.34409093
0.34416813
0.34398067
0.39664279
0.39668634
0.39644816
1.0193437
1.0404955
1.055394
1.0553542
0.33641748
0.33639521
0.33600993
0.28558981
0.28562771
0.28534694
0.36339645
0.36346274
0.3632559
0.36271995
0.3627963
0.36261638
0.29557783
0.29566275
0.29549588
0.36657426
0.36666199
0.36651295
0.36513168
0.36521818
0.36506896
0.29838881
0.29847752
0.29832613
0.36664638
0.36673287
0.3665881
0.36638613
0.36646604
0.36631268
0.30196551
0.30203963
0.30187399
0.35483985
0.35488432
0.35467476
0.9591643
0.97142309
0.98677983
0.9867471
0.29099331
0.29098315
0.29064302
0.24116372
0.24120596
0.24095812
0.32022858
0.32029391
0.32011103
0.3200147
0.32008834
0.31992865
0.25273915
0.25282068
0.25267255
0.32434026
0.3244244
0.32429233
0.32300378
0.32308667
0.32295428
0.2559533
0.25603821
0.25590376
0.32474797
0.3248308
0.32470283
0.32465528
0.32473186
0.32459639
0.26011566
0.26018713
0.26004095
0.31332225
0.31336791
0.31318355
0.89910332
0.90250029
0.91831438
0.91828753
0.24586259
0.24586221
0.2455614
0.19702301
0.19706812
0.19684908
0.27733345
0.27739758
0.27723586
0.2775764
0.2776477
0.27750608
0.2101685
0.2102472
0.2101157
0.28236818
0.2824489
0.28233227
0.28113693
0.28121625
0.28109893
0.2137815
0.21386298
0.21374384
0.28310821
0.28318755
0.28307472
0.28318176
0.28325529
0.28313544
0.21852422
0.21859338
0.21846428
0.272072
0.27211887
0.27195662
0.83914914
0.83371408
0.8499847
0.84996261
0.20100847
0.20101656
0.20075003
0.15315205
0.15319875
0.15300445
0.23469328
0.23475682
0.2346139
0.23538899
0.23545822
0.23533226
0.16784948
0.16792551
0.1678089
0.24064198
0.2407197
0.24061686
0.23951525
0.23959131
0.23948699
0.17185741
0.17193572
0.17183014
0.24171114
0.24178751
0.2416881
0.24194978
0.24202062
0.24191416
0.17717531
0.1772426
0.17712839
0.23107222
0.23112024
0.23097728
0.77929123
0.7650523
0.78177924
0.78176088
0.15641347
0.1564298
0.15619296
0.10953244
0.10958135
0.10940878
0.19229295
0.19235644
0.19223043
0.19343758
0.19350504
0.19339236
0.12576704
0.12584084
0.12573728
0.19914665
0.19922203
0.19913155
0.198124
0.19819716
0.19810373
0.13016611
0.13024172
0.13014798
0.20054184
0.20061595
0.20052857
0.20094472
0.20101328
0.20091815
0.13605417
0.13612008
0.13601899
0.19030722
0.19035656
0.19023061
0.71952011
0.69650456
0.71368656
0.71367126
0.11206358
0.11208756
0.11187634
0.066149648
0.066201251
0.066048027
0.15011811
0.1501823
0.15007202
0.15170842
0.15177439
0.15167267
0.08390718
0.08397934
0.083887176
0.1578682
0.15794215
0.15786317
0.15694976
0.15702035
0.15693563
0.088693758
0.088767306
0.088683833
0.15958673
0.15965932
0.15958307
0.16015351
0.16021987
0.16013371
0.095147263
0.095212183
0.095122404
0.14976301
0.14981358
0.14970274
0.65982723
0.62806105
0.64569692
0.64568428
0.067945614
0.067976739
0.067787226
0.022990176
0.023044817
0.022908704
0.10815515
0.10822102
0.10812584
0.11018926
0.11025356
0.11015979
0.04225718
0.042328246
0.042246043
0.11679409
0.11686732
0.1167994
0.11598075
0.11604843
0.11596955
0.047428081
0.047499883
0.047425166
0.11883284
0.11890472
0.11883915
0.1195639
0.11962781
0.11954772
0.054442136
0.054506219
0.054425997
0.10942513
0.10947762
0.10938089
0.60020487
0.5597127
0.57780176
0.57779125
0.024047616
0.024085322
0.023913329
-0.01995866
-0.019900457
-0.02002109
0.066391516
0.066460248
0.066380809
0.068868987
0.068930903
0.068841124
0.00080522003
0.00087550675
0.00080169906
0.075910753
0.075984907
0.075928969
0.075205039
0.075269522
0.075192865
0.0063566391
0.0064272659
0.0063598888
0.078266859
0.078339658
0.078285793
0.07916422
0.079225394
0.079147996
0.013926185
0.013990128
0.013918342
0.06928052
0.069335997
0.069253471
0.54064609
0.49145125
0.50999271
0.50998395
-0.019640518
-0.019597439
-0.01975713
-0.062708496
-0.062646009
-0.062752195
0.024813798
0.024887912
0.024827501
0.027737258
0.027795691
0.027704523
-0.040460686
-0.040390348
-0.040456701
0.035205677
0.035283186
0.035242456
0.034613174
0.034673234
0.034593552
-0.034531949
-0.034461787
-0.034522791
0.037876491
0.037952582
0.03791365
0.038945165
0.039002397
0.038922616
-0.026411558
-0.026347068
-0.026411122
0.029316616
0.029376803
0.029310244
0.48114461
0.42326916
0.44226221
0.44225488
-0.063128261
-0.063081449
-0.063235844
-0.10527035
-0.10520256
-0.10529437
-0.016591832
-0.016507872
-0.016541412
-0.013213408
-0.013161157
-0.013262495
-0.081550943
-0.081479696
-0.081539051
-0.0053340429
-0.0052491723
-0.0052675819
-0.0058021374
-0.0057493008
-0.0058407884
-0.075247849
-0.075177457
-0.075232777
-0.0023510738
-0.0022677406
-0.0022846714
-0.0011006153
-0.0010500081
-0.0011406152
-0.066581374
-0.066515492
-0.066572017
-0.010479316
-0.010411505
-0.010457268
0.42169478
0.35515951
0.37460336
0.3745972
-0.10642252
-0.10637512
-0.10653504
-0.14765583
-0.14758057
-0.14765611
-0.057840845
-0.057739136
-0.057729954
-0.053987395
-0.053946798
-0.054073708
-0.12247536
-0.12240211
-0.1224543
-0.045723011
-0.045623731
-0.045605617
-0.04604503
-0.046005096
-0.046123904
-0.11580058
-0.11572913
-0.11577912
-0.042430319
-0.04233277
-0.042313618
-0.040977408
-0.040938839
-0.041055167
-0.10659302
-0.10652457
-0.10657297
-0.050121033
-0.050040284
-0.050054983
0.36229151
0.287116
0.30700989
0.30700465
-0.14952638
-0.14948476
-0.14966859
-0.18987603
-0.18978992
-0.18984423
-0.098953297
-0.098819
-0.098736702
-0.094584001
-0.094565497
-0.094746099
-0.16324331
-0.16316653
-0.16321034
-0.085979718
-0.085853096
-0.085771238
-0.086114447
-0.086098374
-0.086272826
-0.15619905
-0.15612549
-0.15616999
-0.082379583
-0.082254978
-0.082172798
-0.080684516
-0.080668413
-0.080837613
-0.14645597
-0.14638315
-0.14642145
-0.089625146
-0.089521795
-0.089484924
0.3029302
0.21913288
0.23947612
0.23947147
-0.19243713
-0.19241351
-0.1926542
-0.23194324
-0.23184039
-0.23186303
-0.1399582
-0.13976345
-0.13955117
-0.13499348
-0.13501725
-0.13530379
-0.20386409
-0.2037814
-0.20381378
-0.12613075
-0.12595211
-0.12575565
-0.1260005
-0.12602867
-0.12631163
-0.19645175
-0.19637462
-0.19641255
-0.12222525
-0.12204917
-0.12185353
-0.12021278
-0.1202384
-0.12051128
-0.18617987
-0.18609972
-0.18612346
-0.12901436
-0.12886989
-0.12874233
0.24360671
0.1512049
0.17199692
0.17199236
-0.23514199
-0.23515948
-0.23551755
-0.27387267
-0.27374267
-0.27371289
-0.18090218
-0.18058701
-0.18014609
-0.17519
-0.17529369
-0.17578521
-0.24434746
-0.24425496
-0.24426945
-0.16621895
-0.16593586
-0.16553553
-0.16567764
-0.16578667
-0.16627849
-0.23656705
-0.23648411
-0.23651281
-0.16200978
-0.16173007
-0.16133268
-0.15953757
-0.15964061
-0.16011336
-0.22577529
-0.22568278
-0.22568291
-0.16832332
-0.16809947
-0.16781071
0.18431731
0.083327246
0.10456794
0.10456229
-0.27760981
-0.27771154
-0.27830069
-0.31568562
-0.31550895
-0.31538729
-0.2218721
-0.22126025
-0.22046257
-0.21511918
-0.21536494
-0.21625031
-0.28470471
-0.2845956
-0.28457956
-0.20632227
-0.20578939
-0.20506154
-0.20509033
-0.20534144
-0.20623431
-0.27655364
-0.27646129
-0.27647516
-0.20181062
-0.20128168
-0.20056132
-0.19860549
-0.19884582
-0.1997018
-0.2652552
-0.26514154
-0.2651004
-0.20761284
-0.20721454
-0.20665282
0.12505864
0.015495539
0.037185811
0.037176163
-0.31977615
-0.32003657
-0.3210732
-0.35741623
-0.35715147
-0.35686772
-0.26297582
-0.26165949
-0.26039349
-0.25468109
-0.25514924
-0.25672728
-0.32495063
-0.32481295
-0.32474201
-0.24656237
-0.24539701
-0.24422634
-0.24413841
-0.24460883
-0.24617871
-0.31642154
-0.31631368
-0.31630164
-0.24174567
-0.24059069
-0.23943329
-0.23732032
-0.23777314
-0.23929005
-0.30463759
-0.30448655
-0.30437071
-0.24699779
-0.24611675
-0.24519253
0.065827657
-0.052294224
-0.030150965
-0.030172067
-0.36152123
-0.36204062
-0.36389496
-0.39912535
-0.39865983
-0.39811368
-0.3037335
-0.30172068
-0.29977312
-0.29372183
-0.29450716
-0.29692966
-0.36510784
-0.36491829
-0.36474707
-0.28656784
-0.28469732
-0.28287984
-0.28267123
-0.28345209
-0.28583544
-0.35618383
-0.35604979
-0.35599045
-0.28144142
-0.27959632
-0.27780057
-0.27553554
-0.27629098
-0.27860478
-0.34395205
-0.34372947
-0.34347876
-0.28626984
-0.28475498
-0.28331095
0.0066216306
-0.12004569
-0.097439033
-0.097490421
-0.4026557
-0.40355186
-0.40648303
-0.44090158
-0.43993429
-0.43904767
-0.34415603
-0.34128368
-0.33837829
-0.33201616
-0.33322982
-0.336778
-0.4052143
-0.40491957
-0.40457178
-0.32622799
-0.32353609
-0.32081107
-0.32046782
-0.32166915
-0.32515755
-0.39586087
-0.39567933
-0.39553293
-0.32080329
-0.31814767
-0.31545492
-0.31303592
-0.31420118
-0.31759243
-0.38324802
-0.38286762
-0.38239127
-0.3251937
-0.3230063
-0.3208306
-0.052561903
-0.18776216
-0.16466265
-0.16478701
-0.44290598
-0.44431689
-0.44862244
-0.48242452
-0.48091667
-0.47956059
-0.3843766
-0.38024003
-0.37590177
-0.36925163
-0.37108795
-0.37629465
-0.44534296
-0.44477783
-0.44416967
-0.36567781
-0.36179803
-0.35772737
-0.35722134
-0.35903995
-0.36417213
-0.43548496
-0.43520776
-0.43490886
-0.35996432
-0.35613255
-0.35210699
-0.34952199
-0.35128759
-0.35627849
-0.42261092
-0.42180291
-0.42104386
-0.36389577
-0.36076133
-0.35751255
-0.11172517
-0.25544603
-0.2317744
-0.23202117
-0.48189229
-0.48403662
-0.49032333
-0.52361306
-0.52149189
-0.51949346
-0.42456329
-0.41845685
-0.41188673
-0.40497251
-0.40776818
-0.41555094
-0.48547266
-0.48439019
-0.48345044
-0.40508451
-0.39935832
-0.39319784
-0.39248048
-0.39525429
-0.40295056
-0.47512369
-0.47459583
-0.47407763
-0.39908985
-0.39342757
-0.38732984
-0.38455413
-0.38724812
-0.39473317
-0.46179085
-0.46049433
-0.45933135
-0.40251729
-0.39791778
-0.3930141
-0.1708702
-0.32309122
-0.29868007
-0.29915303
-0.51907101
-0.52232986
-0.5316572
-0.5645551
-0.56156013
-0.5586285
-0.46495091
-0.45573118
-0.44563242
-0.43848643
-0.44278964
-0.45465612
-0.52528715
-0.52368909
-0.52229753
-0.44466997
-0.43602515
-0.42656321
-0.42555674
-0.42983392
-0.44160057
-0.51473427
-0.51372695
-0.51295834
-0.43840025
-0.42984267
-0.42046956
-0.41746169
-0.4216167
-0.43306137
-0.50068581
-0.49882962
-0.49711882
-0.44122913
-0.43431322
-0.42680929
-0.22999932
-0.39058852
-0.3652053
-0.36611578
-0.55363017
-0.5586191
-0.57274174
-0.60534873
-0.6009688
-0.5966629
-0.50598772
-0.49177585
-0.47605757
-0.46872765
-0.47542126
-0.49381956
-0.56482596
-0.56249241
-0.56055351
-0.48484895
-0.47152195
-0.45680658
-0.45538825
-0.46205132
-0.48033421
-0.55402016
-0.55246136
-0.55145286
-0.47830832
-0.46510382
-0.45051682
-0.4472103
-0.45368343
-0.47146675
-0.53936061
-0.53665473
-0.53421928
-0.48032434
-0.46968613
-0.45808647
-0.28912188
-0.45734056
-0.43101784
-0.43272676
-0.58433878
-0.59199436
-0.61374382
-0.64608524
-0.63934791
-0.63314135
-0.54862002
-0.52618094
-0.50149222
-0.49405315
-0.50452197
-0.53349403
-0.6040883
-0.60039736
-0.59799707
-0.52648686
-0.50544244
-0.48235711
-0.48033624
-0.49077055
-0.51961302
-0.59294909
-0.59032594
-0.58939331
-0.51967597
-0.4988087
-0.47591184
-0.47220327
-0.48233817
-0.51038945
-0.57784818
-0.57360442
-0.57036651
-0.52037959
-0.50357237
-0.4855951
-0.34822012
-0.52083573
-0.49552716
-0.49828414
-0.60934277
-0.62087196
-0.65485784
-0.68677991
-0.67554877
-0.66737911
-0.59498449
-0.55818927
-0.51941679
-0.51195456
-0.52822114
-0.57456002
-0.64289009
-0.63601793
-0.63413877
-0.57152374
-0.53701353
-0.50084562
-0.49789718
-0.5141326
-0.5603403
-0.63123023
-0.62575567
-0.62584807
-0.5644363
-0.53019175
-0.49430139
-0.49000129
-0.50575845
-0.55068417
-0.61601989
-0.60842324
-0.60506649
-0.56262512
-0.53486497
-0.50745337
-0.40710135
-0.57006134
-0.55839529
-0.55936496
-0.62575515
-0.64177706
-0.69554143
-0.72704504
-0.70546081
-0.69805614
-0.65024154
-0.58529499
-0.52666504
-0.51851289
-0.54287944
-0.61798056
-0.68019158
-0.66431199
-0.66532416
-0.62460741
-0.56369085
-0.50930963
-0.50416123
-0.52853422
-0.6035397
-0.66765561
-0.65354693
-0.65737926
-0.61722387
-0.55673035
-0.5027403
-0.49678997
-0.52039063
-0.59328068
-0.65303162