/*--------------------------------*- C++ -*----------------------------------*\
  =========                 |
  \\      /  F ield         | OpenFOAM: The Open Source CFD Toolbox
   \\    /   O peration     | Website:  https://openfoam.org
    \\  /    A nd           | Version:  7
     \\/     M anipulation  |
\*---------------------------------------------------------------------------*/
FoamFile
{
    version     2.0;
    format      ascii;
    class       surfaceScalarField;
    location    "2000/fluid";
    object      phi;
}
// * * * * * * * * * * * * * * * * * * * * * * * * * * * * * * * * * * * * * //

dimensions      [1 0 -1 0 0 0 0];

internalField   nonuniform List<scalar> 
24580
(
1.3251216e-09
-6.1180286e-07
6.1047774e-07
6.1143489e-07
-1.5378558e-09
2.6029661e-09
6.1133982e-07
-3.7696064e-09
4.9297879e-09
6.1102342e-07
-6.1655677e-09
7.6421527e-09
6.1032451e-07
-9.4730105e-09
1.1648497e-08
6.1079252e-07
-1.3814911e-08
1.5522388e-08
6.1282042e-07
-1.6351972e-08
1.6031555e-08
6.1429988e-07
-1.4747557e-08
1.2947681e-08
6.1380747e-07
-1.1156083e-08
9.8486086e-09
6.1220776e-07
-9.3072151e-09
9.5994519e-09
6.1176095e-07
-1.0356502e-08
1.1095551e-08
6.1311292e-07
-1.1334043e-08
1.0721124e-08
6.1425069e-07
-9.3602352e-09
7.6095482e-09
6.1368186e-07
-5.9269235e-09
4.7450666e-09
6.120693e-07
-4.3347473e-09
4.7654435e-09
6.1157096e-07
-5.6775288e-09
6.6065654e-09
6.1282878e-07
-7.0839496e-09
6.7551652e-09
6.1393921e-07
-5.706831e-09
4.2676214e-09
6.1343345e-07
-2.8720788e-09
1.938633e-09
6.1188975e-07
-1.7407927e-09
2.3510405e-09
6.1142922e-07
-3.4175604e-09
4.488342e-09
6.1268598e-07
-5.1074765e-09
4.9214974e-09
6.1380931e-07
-4.0138174e-09
2.7045034e-09
6.1334685e-07
-1.4197441e-09
5.7289003e-10
6.1184096e-07
-4.4311581e-10
1.1021606e-09
6.1141047e-07
-2.2001538e-09
3.2896838e-09
6.1267911e-07
-3.9217854e-09
3.7426719e-09
6.1381265e-07
-2.8364528e-09
1.523799e-09
6.133631e-07
-2.2850829e-10
-6.3459652e-10
6.1183027e-07
7.7227433e-10
-1.0254755e-10
6.1136225e-07
-1.0191316e-09
2.1568856e-09
6.1257104e-07
-2.8703716e-09
2.7993267e-09
6.1367799e-07
-2.0198841e-09
8.4189691e-10
6.1324723e-07
3.2388855e-10
-1.0711233e-09
6.1174048e-07
1.1025532e-09
-3.4303539e-10
6.1130293e-07
-8.5229159e-10
2.0493614e-09
6.1252944e-07
-2.8126989e-09
2.7832579e-09
6.1364892e-07
-2.0390177e-09
8.9009396e-10
6.1322948e-07
2.5211941e-10
-9.816015e-10
6.1174141e-07
1.0035813e-09
-2.4499311e-10
6.1132589e-07
-9.3968575e-10
2.1137985e-09
6.1257646e-07
-2.8411072e-09
2.7646427e-09
6.1370525e-07
-1.9657987e-09
7.6054655e-10
6.1327769e-07
4.3620637e-10
-1.2138958e-09
6.1175433e-07
1.2697633e-09
-5.2409049e-10
6.1129429e-07
-6.6677659e-10
1.8724833e-09
6.1249323e-07
-2.6591763e-09
2.6659466e-09
6.1359485e-07
-1.9685605e-09
8.7371541e-10
6.13165e-07
2.0876756e-10
-8.7377192e-10
6.116678e-07
8.2625213e-10
5.9467789e-12
6.1122764e-07
-1.275126e-09
2.5474847e-09
6.124483e-07
-3.3870922e-09
3.438788e-09
6.1355856e-07
-2.7812232e-09
1.7226678e-09
6.1312253e-07
-6.7869479e-10
5.6160997e-11
6.1164472e-07
-1.3729233e-10
9.9257418e-10
6.1121954e-07
-2.280275e-09
3.5607379e-09
6.12468e-07
-4.3916954e-09
4.4236996e-09
6.1358512e-07
-3.7396257e-09
2.6545011e-09
6.131317e-07
-1.590463e-09
9.5876789e-10
6.1164629e-07
-1.0350363e-09
1.8887495e-09
6.1122942e-07
-3.1762625e-09
4.4468404e-09
6.1255317e-07
-5.2400671e-09
5.1868993e-09
6.1387287e-07
-4.3370287e-09
2.9641543e-09
6.1378869e-07
-1.4485915e-09
1.5990022e-10
6.1271747e-07
6.4796424e-10
-8.6543717e-10
-3.710758e-10
6.1218288e-07
6.8819716e-10
1.4254781e-09
-6.0880757e-07
6.073821e-07
-6.0923314e-07
6.057146e-07
-4.0772253e-09
7.5957606e-09
-6.0902719e-07
6.056984e-07
-1.1394141e-08
1.4722927e-08
-6.0809624e-07
6.0395658e-07
-1.801868e-08
2.2158334e-08
-6.0574825e-07
5.9818857e-07
-2.7866079e-08
3.5425755e-08
-6.0708331e-07
6.0056194e-07
-4.3364714e-08
4.9886085e-08
-6.1349991e-07
6.1473744e-07
-5.3229631e-08
5.1992101e-08
-6.1823273e-07
6.2526436e-07
-4.6940597e-08
3.9908971e-08
-6.1665952e-07
6.2167904e-07
-3.29455e-08
2.7925978e-08
-6.1146014e-07
6.0967191e-07
-2.6073251e-08
2.7861483e-08
-6.099842e-07
6.0623958e-07
-3.162042e-08
3.5365037e-08
-6.1436143e-07
6.1632727e-07
-3.7087129e-08
3.512129e-08
-6.1806031e-07
6.2479734e-07
-2.999564e-08
2.3258606e-08
-6.1626218e-07
6.2082365e-07
-1.674311e-08
1.2181639e-08
-6.1103094e-07
6.0878982e-07
-1.0782154e-08
1.3023274e-08
-6.0941436e-07
6.0512155e-07
-1.7245479e-08
2.1538292e-08
-6.1350335e-07
6.1459593e-07
-2.3971809e-08
2.2879236e-08
-6.1710796e-07
6.2283834e-07
-1.8745768e-08
1.3015397e-08
-6.1550145e-07
6.1927366e-07
-7.4269738e-09
3.6547692e-09
-6.1048344e-07
6.0768444e-07
-2.928224e-09
5.7272173e-09
-6.0899085e-07
6.0429735e-07
-1.0402521e-08
1.5096017e-08
-6.1307431e-07
6.1374022e-07
-1.7941575e-08
1.727566e-08
-6.1671213e-07
6.2202889e-07
-1.3577316e-08
8.2605596e-09
-6.1523729e-07
6.1873741e-07
-3.0233627e-09
-4.7675863e-10
-6.1033299e-07
6.0737962e-07
9.8375223e-10
1.9696257e-09
-6.0893642e-07
6.041999e-07
-6.7377116e-09
1.1474223e-08
-6.1305687e-07
6.1371485e-07
-1.4349733e-08
1.3691759e-08
-6.1672397e-07
6.2205695e-07
-9.9849118e-09
4.6519269e-09
-6.152899e-07
6.1886392e-07
6.3313942e-10
-4.2071655e-09
-6.103008e-07
6.07315e-07
4.74675e-09
-1.7609507e-09
-6.0879317e-07
6.0392383e-07
-3.0619675e-09
7.9313059e-09
-6.1272775e-07
6.1304096e-07
-1.1059533e-08
1.0746326e-08
-6.1631121e-07
6.2120439e-07
-7.4521463e-09
2.5589683e-09
-6.1493389e-07
6.1813296e-07
2.3007867e-09
-5.4998581e-09
-6.1002901e-07
6.0676997e-07
5.7026536e-09
-2.4436135e-09
-6.0861524e-07
6.0357447e-07
-2.5971008e-09
7.6378669e-09
-6.1260293e-07
6.1279465e-07
-1.0909133e-08
1.0717418e-08
-6.1622295e-07
6.2102652e-07
-7.5289596e-09
2.725387e-09
-6.1487929e-07
6.1801927e-07
2.0596006e-09
-5.1995847e-09
-6.1003114e-07
6.067719e-07
5.369345e-09
-2.1101076e-09
-6.0868458e-07
6.0371288e-07
-2.9027533e-09
7.8744578e-09
-6.1274734e-07
6.1309344e-07
-1.1031707e-08
1.0685603e-08
-6.1639725e-07
6.2139088e-07
-7.3142222e-09
2.3205923e-09
-6.1502873e-07
6.1833489e-07
2.6493034e-09
-5.9554574e-09
-6.1007217e-07
6.0686066e-07
6.2425189e-09
-3.0310025e-09
-6.0858938e-07
6.0352417e-07
-1.9895518e-09
7.0547604e-09
-6.1249236e-07
6.1256783e-07
-1.0399603e-08
1.0324133e-08
-6.1605778e-07
6.2068902e-07
-7.2866149e-09
2.6553683e-09
-6.1468398e-07
6.1762661e-07
1.9425839e-09
-4.8852134e-09
-6.0981007e-07
6.0633711e-07
4.8487103e-09
-1.3757433e-09
-6.0838952e-07
6.0312822e-07
-3.8835377e-09
9.1448351e-09
-6.1235678e-07
6.1229918e-07
-1.2641702e-08
1.2699304e-08
-6.1594774e-07
6.2046915e-07
-9.7829044e-09
5.2614889e-09
-6.1455433e-07
6.1735691e-07
-7.8269031e-10
-2.0198852e-09
-6.0974185e-07
6.0620793e-07
1.8768541e-09
1.6570626e-09
-6.0836385e-07
6.0307174e-07
-6.978301e-09
1.2270409e-08
-6.1241691e-07
6.1242568e-07
-1.5735554e-08
1.5726785e-08
-6.1603014e-07
6.2064627e-07
-1.2720506e-08
8.1043832e-09
-6.1458321e-07
6.1741358e-07
-3.5592489e-09
7.2888422e-10
-6.0974488e-07
6.0620744e-07
-8.5557916e-10
4.3930219e-09
-6.0838334e-07
6.0306763e-07
-9.7371221e-09
1.5052836e-08
-6.1265135e-07
6.1280443e-07
-1.8479574e-08
1.8326491e-08
-6.1687355e-07
6.2222459e-07
-1.4956776e-08
9.6057372e-09
-6.1656834e-07
6.2136703e-07
-3.8030312e-09
-9.9565878e-10
-6.1307279e-07
6.1324167e-07
3.7356186e-09
-3.9045025e-09
-1.3016919e-09
-6.1145972e-07
6.1010333e-07
2.6580842e-09
-3.9709321e-09
-6.074033e-07
6.1137424e-07
-6.0039628e-07
5.9203897e-07
-3.0313141e-09
1.1388631e-08
-6.0163015e-07
5.9738478e-07
-1.9979817e-08
2.4225188e-08
-5.9918645e-07
5.9514447e-07
-2.6491101e-08
3.0533081e-08
-5.8656789e-07
5.6897221e-07
-3.9811875e-08
5.7407556e-08
-5.8969415e-07
5.7172344e-07
-7.7724586e-08
9.5695295e-08
-6.1692959e-07
6.2086869e-07
-1.059737e-07
1.0203459e-07
-6.3715395e-07
6.5686046e-07
-8.7290138e-08
6.7583627e-08
-6.3004122e-07
6.4385715e-07
-4.8330877e-08
3.4514942e-08
-6.0568843e-07
5.973107e-07
-3.0145261e-08
3.8522996e-08
-5.9876527e-07
5.84417e-07
-5.2752637e-08
6.7100905e-08
-6.1921398e-07
6.2354229e-07
-7.5626189e-08
7.1297882e-08
-6.360665e-07
6.5461749e-07
-5.7212656e-08
3.8661664e-08
-6.2848972e-07
6.41336e-07
-2.0636208e-08
7.7899307e-09
-6.0417263e-07
5.9497235e-07
-4.3466718e-09
1.3546951e-08
-5.9697759e-07
5.8194086e-07
-2.8449141e-08
4.3485873e-08
-6.1629278e-07
6.1908431e-07
-5.3120457e-08
5.0328929e-08
-6.3267051e-07
6.4924183e-07
-3.8127704e-08
2.1556383e-08
-6.2585155e-07
6.3726075e-07
-5.2732018e-09
-6.1360028e-09
-6.023303e-07
5.9220248e-07
8.3843015e-09
1.7435228e-09
-5.9567582e-07
5.80172e-07
-1.7289901e-08
3.2793721e-08
-6.1487391e-07
6.1696772e-07
-4.3034674e-08
4.0940866e-08
-6.3127479e-07
6.4704838e-07
-2.9515798e-08
1.3742208e-08
-6.2494782e-07
6.3592274e-07
1.8850014e-09
-1.2859922e-08
-6.018026e-07
5.9137065e-07
1.4687654e-08
-4.2557018e-09
-5.9554876e-07
5.8004337e-07
-1.1379139e-08
2.6884528e-08
-6.1485286e-07
6.169746e-07
-3.7154691e-08
3.5032956e-08
-6.313343e-07
6.47171e-07
-2.354844e-08
7.7117421e-09
-6.2521434e-07
6.3642087e-07
8.0289633e-09
-1.9235498e-08
-6.0170098e-07
5.912367e-07
2.1159887e-08
-1.0695608e-08
-5.9511328e-07
5.7944416e-07
-4.9060413e-09
2.0575163e-08
-6.1369182e-07
6.1515414e-07
-3.1295329e-08
2.9833006e-08
-6.2984889e-07
6.4481206e-07
-1.9167667e-08
4.2044983e-09
-6.2395495e-07
6.3444901e-07
1.0699651e-08
-2.1193711e-08
-6.0079532e-07
5.8989522e-07
2.2503525e-08
-1.1603432e-08
-5.9455159e-07
5.7864994e-07
-4.3223007e-09
2.0223956e-08
-6.1329132e-07
6.1457453e-07
-3.1137361e-08
2.9854147e-08
-6.2955003e-07
6.4435819e-07
-1.9359804e-08
4.5516446e-09
-6.237544e-07
6.3412486e-07
1.0213211e-08
-2.0583679e-08
-6.0079283e-07
5.8988021e-07
2.1818591e-08
-1.0905974e-08
-5.9477963e-07
5.7898312e-07
-5.0019721e-09
2.0798485e-08
-6.1381221e-07
6.1540104e-07
-3.1508645e-08
2.9919817e-08
-6.3019399e-07
6.4539738e-07
-1.9047362e-08
3.843966e-09
-6.2432089e-07
6.350565e-07
1.1311347e-08
-2.2046955e-08
-6.0095546e-07
5.9014964e-07
2.3538109e-08
-1.2732295e-08
-5.9447171e-07
5.7853817e-07
-3.1275186e-09
1.9061062e-08
-6.1289978e-07
6.1395878e-07
-3.0109804e-08
2.9050807e-08
-6.2897121e-07
6.4345597e-07
-1.8848897e-08
4.3641369e-09
-6.2309654e-07
6.3312992e-07
1.006328e-08
-2.0096655e-08
-6.0009129e-07
5.8888128e-07
2.1009772e-08
-9.7997561e-09
-5.9382474e-07
5.7760107e-07
-6.4550021e-09
2.267868e-08
-6.1246152e-07
6.1332337e-07
-3.3921434e-08
3.3059584e-08
-6.2860529e-07
6.4290706e-07
-2.3054069e-08
8.7522983e-09
-6.2262412e-07
6.3237375e-07
5.4653907e-09
-1.5215025e-08
-5.998858e-07
5.8859025e-07
1.5943062e-08
-4.6475131e-09
-5.9372336e-07
5.7743408e-07
-1.1768039e-08
2.8057319e-08
-6.1268963e-07
6.137023e-07
-3.9210787e-08
3.819812e-08
-6.289314e-07
6.4344845e-07
-2.7993622e-08
1.347657e-08
-6.2270585e-07
6.3248822e-07
9.0816484e-10
-1.069053e-08
-5.9988991e-07
5.885967e-07
1.1454473e-08
-1.6126327e-10
-5.9361232e-07
5.7709963e-07
-1.64124e-08
3.2925088e-08
-6.1309606e-07
6.1386369e-07
-4.428384e-08
4.3516206e-08
-6.3126534e-07
6.46299e-07
-3.3362204e-08
1.8328542e-08
-6.2916353e-07
6.416898e-07
-2.5717362e-09
-9.9545283e-09
-6.1247503e-07
6.0908275e-07
1.5853035e-08
-1.2460757e-08
-2.1368071e-09
-6.077667e-07
6.040536e-07
5.8499076e-09
-3.3126929e-08
-6.2452088e-07
6.576478e-07
-5.7761774e-07
5.4994589e-07
1.3850822e-08
1.3821032e-08
-5.9416727e-07
5.9477293e-07
-4.090784e-08
4.0302181e-08
-5.9485728e-07
6.048343e-07
-2.8083879e-08
1.8106855e-08
-5.4188611e-07
4.9845884e-07
-2.4485461e-08
6.7912726e-08
-5.4171782e-07
4.9093326e-07
-1.2066081e-07
1.7144536e-07
-6.2829741e-07
6.4345093e-07
-2.0620009e-07
1.9104657e-07
-6.8921105e-07
7.4180243e-07
-1.4817743e-07
9.5586046e-08
-6.6700943e-07
7.0642113e-07
-4.4587072e-08
5.1753706e-09
-5.8025763e-07
5.4638782e-07
8.8986117e-09
2.4971196e-08
-5.5765883e-07
5.0889433e-07
-7.3625363e-08
1.2238987e-07
-6.3069728e-07
6.4444479e-07
-1.570816e-07
1.4333409e-07
-6.8500518e-07
7.3442182e-07
-1.0306249e-07
5.3645848e-08
-6.6311583e-07
7.0084746e-07
-5.0395124e-09
-3.2692119e-08
-5.7690301e-07
5.4144229e-07
4.5244533e-08
-9.7838067e-09
-5.547105e-07
5.06076e-07
-3.9289024e-08
8.7923522e-08
-6.2429085e-07
6.355206e-07
-1.2384198e-07
1.1261223e-07
-6.7691749e-07
7.227769e-07
-7.5628708e-08
2.9769296e-08
-6.5732357e-07
6.9292034e-07
1.5626237e-08
-5.1223011e-08
-5.729994e-07
5.364103e-07
6.1661528e-08
-2.5072431e-08
-5.5259246e-07
5.0380739e-07
-2.4138776e-08
7.2923845e-08
-6.2133325e-07
6.3153266e-07
-1.0947084e-07
9.9271433e-08
-6.7369632e-07
7.1822924e-07
-6.3555651e-08
1.9022732e-08
-6.5543327e-07
6.9029167e-07
2.5198363e-08
-6.0056766e-08
-5.7180874e-07
5.3485154e-07
6.9777502e-08
-3.2820298e-08
-5.5251091e-07
5.0384002e-07
-1.6299923e-08
6.4970811e-08
-6.2140338e-07
6.3170896e-07
-1.0155561e-07
9.1250037e-08
-6.7393017e-07
7.1865957e-07
-5.5352657e-08
1.0623266e-08
-6.5629411e-07
6.9168649e-07
3.3908771e-08
-6.9301147e-08
-5.716544e-07
5.3470873e-07
7.9263546e-08
-4.2317874e-08
-5.5177743e-07
5.0303343e-07
-6.4076273e-09
5.5151622e-08
-6.1870209e-07
6.2781921e-07
-9.23808e-08
8.3263683e-08
-6.7038734e-07
7.1352649e-07
-4.8875672e-08
5.7365192e-09
-6.5337472e-07
6.8749775e-07
3.7297003e-08
-7.1420038e-08
-5.6983338e-07
5.3243686e-07
8.0373992e-08
-4.2977481e-08
-5.5076542e-07
5.0187591e-07
-6.0448344e-09
5.4934341e-08
-6.179279e-07
6.2684318e-07
-9.2282558e-08
8.3367278e-08
-6.6973836e-07
7.1262938e-07
-4.9223606e-08
6.3325804e-09
-6.5287652e-07
6.8675607e-07
3.645447e-08
-7.0334012e-08
-5.6979333e-07
5.3235423e-07
7.9129118e-08
-4.1690023e-08
-5.5120853e-07
5.0241553e-07
-7.404331e-09
5.6197329e-08
-6.1916707e-07
6.286387e-07
-9.327733e-08
8.3805692e-08
-6.7132668e-07
7.1497685e-07
-4.8940247e-08
5.2900743e-09
-6.5433015e-07
6.8894608e-07
3.8260597e-08
-7.2876526e-08
-5.702057e-07
5.3294176e-07
8.2179535e-08
-4.4915591e-08
-5.5062315e-07
5.0170575e-07
-3.9350654e-09
5.2852474e-08
-6.1701006e-07
6.2551429e-07
-9.0407214e-08
8.1902984e-08
-6.6840934e-07
7.1073692e-07
-4.8290114e-08
5.9625283e-09
-6.5146216e-07
6.8481721e-07
3.6263275e-08
-6.961833e-08
-5.6850387e-07
5.308427e-07
7.7998144e-08
-4.0336976e-08
-5.4938758e-07
5.0023034e-07
-9.0069813e-09
5.816422e-08
-6.1616267e-07
6.2445716e-07
-9.5774451e-08
8.7479968e-08
-6.6763272e-07
7.0966294e-07
-5.4152996e-08
1.2122779e-08
-6.5031421e-07
6.8313834e-07
2.9718708e-08
-6.2542846e-08
-5.6812957e-07
5.3039734e-07
7.0630596e-08
-3.2898369e-08
-5.4912944e-07
4.9986806e-07
-1.6811976e-08
6.6073358e-08
-6.1676514e-07
6.2539613e-07
-1.0345678e-07
9.4825792e-08
-6.6848275e-07
7.1093746e-07
-6.1091297e-08
1.863659e-08
-6.5047903e-07
6.833959e-07
2.352913e-08
-5.6445998e-08
-5.6814413e-07
5.304393e-07
6.4668198e-08
-2.6963359e-08
-5.4842032e-07
4.9866296e-07
-2.307599e-08
7.2833358e-08
-6.1620237e-07
6.2338514e-07
-1.1084121e-07
1.0365845e-07
-6.711786e-07
7.1218759e-07
-7.1719212e-08
3.0710225e-08
-6.6206778e-07
6.9589003e-07
1.0833543e-08
-4.4655797e-08
-5.9927132e-07
5.7468812e-07
5.8607969e-08
-3.402477e-08
3.1887718e-09
-5.9878543e-07
5.9274832e-07
2.8483332e-09
-1.5325689e-07
-7.3270711e-07
8.85964e-07
-4.91418e-07
3.5771063e-07
1.1772327e-07
1.5984108e-08
-6.0689587e-07
6.5388767e-07
-1.4771646e-07
1.0072466e-07
-6.381099e-07
7.1917573e-07
-2.0410043e-08
-6.0655788e-08
-4.2587971e-07
2.9425414e-07
1.0669839e-07
2.4927172e-08
-4.033569e-07
2.5381981e-07
-1.7766723e-07
3.2720432e-07
-6.7844144e-07
7.6473666e-07
-4.6328312e-07
3.7698789e-07
-8.2574191e-07
9.5635934e-07
-2.5385354e-07
1.2323611e-07
-7.7439783e-07
8.9323207e-07
6.4794341e-09
-1.2531367e-07
-4.7737835e-07
3.3637006e-07
2.0439388e-07
-6.338559e-08
-4.2177057e-07
2.6680628e-07
-9.6640007e-08
2.516043e-07
-6.7620963e-07
7.5677019e-07
-3.9105392e-07
3.1049336e-07
-8.1375348e-07
9.3870781e-07
-1.9280641e-07
6.7852086e-08
-7.6724218e-07
8.8262423e-07
5.6277607e-08
-1.7165966e-07
-4.7090831e-07
3.3070961e-07
2.4807992e-07
-1.0788122e-07
-4.1946783e-07
2.6446743e-07
-4.9830162e-08
2.0483056e-07
-6.6376124e-07
7.3912363e-07
-3.4381576e-07
2.6845337e-07
-7.9752879e-07
9.1662075e-07
-1.5644537e-07
3.7353404e-08
-7.5630529e-07
8.6700247e-07
8.113305e-08
-1.9183023e-07
-4.6514378e-07
3.258254e-07
2.6476325e-07
-1.2544486e-07
-4.1743924e-07
2.626912e-07
-3.1011844e-08
1.8575989e-07
-6.5842249e-07
7.3187811e-07
-3.243135e-07
2.5085788e-07
-7.9130248e-07
9.0830537e-07
-1.4091256e-07
2.3909668e-08
-7.5263593e-07
8.6170061e-07
9.2647679e-08
-2.0171236e-07
-4.6331815e-07
3.242913e-07
2.7349735e-07
-1.344705e-07
-4.1763863e-07
2.627448e-07
-2.1639757e-08
1.7653359e-07
-6.5875054e-07
7.3244954e-07
-3.1507965e-07
2.4138064e-07
-7.9208879e-07
9.0974153e-07
-1.3093036e-07
1.3277624e-08
-7.5477738e-07
8.6473599e-07
1.0410512e-07
-2.1406373e-07
-4.6321517e-07
3.2451063e-07
2.8682758e-07
-1.4812304e-07
-4.1686186e-07
2.6170942e-07
-7.4102854e-09
1.6256273e-07
-6.531882e-07
7.2447688e-07
-3.0101137e-07
2.2972269e-07
-7.8483947e-07
8.996793e-07
-1.2197723e-07
7.1373996e-09
-7.4885067e-07
8.5635369e-07
1.0755997e-07
-2.1506299e-07
-4.6069257e-07
3.2229235e-07
2.8589274e-07
-1.4749253e-07
-4.1572222e-07
2.6092088e-07
-7.7408295e-09
1.6254217e-07
-6.5199718e-07
7.230029e-07
-3.0074194e-07
2.2973622e-07
-7.8361627e-07
8.9800759e-07
-1.2238996e-07
7.9986408e-09
-7.4776852e-07
8.5480945e-07
1.0622599e-07
-2.1326692e-07
-4.6055716e-07
3.2208061e-07
2.8367234e-07
-1.4519579e-07
-4.1630673e-07
2.6149905e-07
-1.0208016e-08
1.6501569e-07
-6.5456632e-07
7.2669249e-07
-3.0329152e-07
2.3116534e-07
-7.870135e-07
9.0286956e-07
-1.2246176e-07
6.6057076e-09
-7.5099167e-07
8.594462e-07
1.0911169e-07
-2.1756621e-07
-4.6130115e-07
3.2293464e-07
2.8921636e-07
-1.5084985e-07
-4.1553164e-07
2.6062088e-07
-4.2675038e-09
1.5917827e-07
-6.5008668e-07
7.2024831e-07
-2.9736813e-07
2.272065e-07
-7.8097537e-07
8.9435804e-07
-1.2082693e-07
7.4442496e-09
-7.4515216e-07
8.5128634e-07
1.0579273e-07
-2.1192691e-07
-4.5900556e-07
3.2083353e-07
2.816182e-07
-1.4344617e-07
-4.1399864e-07
2.5968016e-07
-1.15087e-08
1.6582717e-07
-6.4883031e-07
7.1872187e-07
-3.0369638e-07
2.3380483e-07
-7.7947235e-07
8.9217839e-07
-1.2797298e-07
1.5266949e-08
-7.4276187e-07
8.4803003e-07
9.7128213e-08
-2.0239638e-07
-4.5854394e-07
3.2027163e-07
2.7120565e-07
-1.3293334e-07
-4.1355878e-07
2.5962253e-07
-2.2235028e-08
1.7617127e-07
-6.5028948e-07
7.2093525e-07
-3.1393698e-07
2.4329121e-07
-7.8129467e-07
8.9465948e-07
-1.3676165e-07
2.3396841e-08
-7.431982e-07
8.4886315e-07
8.9526884e-08
-1.9519183e-07
-4.5865742e-07
3.2035889e-07
2.6420486e-07
-1.2590632e-07
-4.1189502e-07
2.5814928e-07
-2.9251314e-08
1.8299705e-07
-6.4580918e-07
7.1254761e-07
-3.2096261e-07
2.5422418e-07
-7.7897095e-07
8.8543878e-07
-1.5322973e-07
4.676191e-08
-7.5331299e-07
8.5130312e-07
5.8243026e-08
-1.5623315e-07
-5.1563906e-07
3.7765201e-07
2.204245e-07
-8.2437443e-08
4.6658756e-08
-5.904202e-07
6.0783013e-07
-6.4068687e-08
-2.4363325e-08
-9.3779747e-07
9.621608e-07
-8.5074336e-07
7.8885148e-07
6.189188e-08
-8.8076843e-07
9.3639045e-07
-1.0664961e-08
-4.4957062e-08
-1.0429845e-06
8.30232e-07
2.127525e-07
-1.1394636e-06
1.2277765e-06
-1.8394631e-07
9.5633348e-08
-1.0849373e-06
1.1558297e-06
4.3554037e-09
-7.5247751e-08
-1.0234119e-06
8.4710459e-07
1.7630729e-07
-1.1157922e-06
1.2035975e-06
-1.4034667e-07
5.254137e-08
-1.0670734e-06
1.1259333e-06
4.1895797e-08
-1.0075564e-07
-9.9454627e-07
8.4052863e-07
1.5401765e-07
-1.0869348e-06
1.1728788e-06
-1.148046e-07
2.8860638e-08
-1.0440804e-06
1.0958571e-06
6.0691295e-08
-1.1246805e-07
-9.8307719e-07
8.3833507e-07
1.4474212e-07
-1.0762774e-06
1.161713e-06
-1.0392681e-07
1.8491164e-08
-1.0361711e-06
1.0850256e-06
6.9265203e-08
-1.1811965e-07
-9.8394897e-07
8.4443381e-07
1.3951515e-07
-1.0788316e-06
1.1653133e-06
-9.6737118e-08
1.0255383e-08
-1.0400634e-06
1.087311e-06
7.7537318e-08
-1.2478494e-07
-9.7113582e-07
8.3747161e-07
1.336642e-07
-1.0653382e-06
1.1504784e-06
-9.0676591e-08
5.5364372e-09
-1.0282249e-06
1.0736136e-06
8.0298914e-08
-1.2568764e-07
-9.6897583e-07
8.352564e-07
1.3371942e-07
-1.0630546e-06
1.1478537e-06
-9.1013477e-08
6.2143332e-09
-1.0260911e-06
1.0714866e-06
7.9363572e-08
-1.247591e-07
-9.7486766e-07
8.4060605e-07
1.342616e-07
-1.069832e-06
1.1556209e-06
-9.0890957e-08
5.1020273e-09
-1.0325598e-06
1.0781514e-06
8.1335959e-08
-1.2692759e-07
-9.6456032e-07
8.3205227e-07
1.3250805e-07
-1.0581266e-06
1.1423385e-06
-9.0007062e-08
5.7952095e-09
-1.0213288e-06
1.0663338e-06
7.9136142e-08
-1.2414116e-07
-9.6242289e-07
8.2629484e-07
1.3612804e-07
-1.0548511e-06
1.1381433e-06
-9.5148846e-08
1.18567e-08
-1.0171484e-06
1.0632586e-06
7.2910363e-08
-1.1902062e-07
-9.661592e-07
8.2504492e-07
1.4111429e-07
-1.0579568e-06
1.1411608e-06
-1.0129538e-07
1.8091367e-08
-1.0187601e-06
1.0664301e-06
6.7353582e-08
-1.150236e-07
-9.508763e-07
8.0193499e-07
1.4894131e-07
-1.0388071e-06
1.1161731e-06
-1.1512937e-07
3.7763396e-08
-1.0105331e-06
1.0605758e-06
4.389015e-08
-9.3932787e-08
3.9300849e-08
-7.3833852e-07
6.9903767e-07
-1.338902e-08
-9.8073413e-07
9.9412315e-07
-7.5968202e-07
7.3829286e-07
2.138916e-08
-9.6247359e-07
9.8187414e-07
-3.4474561e-09
-1.5953096e-08
-7.2706e-07
6.6098916e-07
6.6070838e-08
-1.2631604e-06
1.2826186e-06
-6.4771593e-08
4.5313331e-08
-1.19847e-06
1.2306091e-06
-1.5148823e-08
-1.6990328e-08
-7.6410352e-07
7.1004083e-07
5.406269e-08
-1.2405448e-06
1.2620204e-06
-4.6325723e-08
2.4850069e-08
-1.15766e-06
1.1818036e-06
2.7779902e-09
-2.6921659e-08
-7.6943818e-07
7.227436e-07
4.6694582e-08
-1.2101097e-06
1.232333e-06
-3.5834515e-08
1.3611178e-08
-1.1218333e-06
1.141678e-06
1.2014875e-08
-3.1859593e-08
-7.7224175e-07
7.2863416e-07
4.3607594e-08
-1.1992058e-06
1.2218368e-06
-3.1342607e-08
8.7116072e-09
-1.1085619e-06
1.1265762e-06
1.6112088e-08
-3.4126314e-08
-7.8144472e-07
7.3978758e-07
4.1657139e-08
-1.2036149e-06
1.2268698e-06
-2.8096544e-08
4.8416701e-09
-1.1091781e-06
1.1259299e-06
1.9643146e-08
-3.6394948e-08
-7.7738926e-07
7.3749552e-07
3.9893736e-08
-1.1884714e-06
1.2116929e-06
-2.5832247e-08
2.6107334e-09
-1.0941772e-06
1.1099543e-06
2.1272101e-08
-3.7049161e-08
-7.7507163e-07
7.3511002e-07
3.9961607e-08
-1.1856747e-06
1.2087915e-06
-2.6039211e-08
2.9224084e-09
-1.0921405e-06
1.1079871e-06
2.093542e-08
-3.6782022e-08
-7.803437e-07
7.4036215e-07
3.998155e-08
-1.193899e-06
1.2172747e-06
-2.5781208e-08
2.4054786e-09
-1.0987319e-06
1.1145161e-06
2.1580695e-08
-3.7364958e-08
-7.723979e-07
7.3274665e-07
3.9651257e-08
-1.1799419e-06
1.2029586e-06
-2.5745526e-08
2.7288095e-09
-1.0867872e-06
1.102485e-06
2.097849e-08
-3.6676286e-08
-7.6445764e-07
7.234355e-07
4.1022138e-08
-1.1750737e-06
1.1975922e-06
-2.8089127e-08
5.5706479e-09
-1.0849078e-06
1.1015097e-06
1.8359814e-08
-3.4961764e-08
-7.6045241e-07
7.17729e-07
4.2723405e-08
-1.1777682e-06
1.1999576e-06
-3.0688703e-08
8.4992868e-09
-1.0894664e-06
1.1071082e-06
1.5828136e-08
-3.3469879e-08
-7.3192179e-07
6.857298e-07
4.6191992e-08
-1.1496484e-06
1.1698911e-06
-3.7325227e-08
1.7082515e-08
-1.0872742e-06
1.1077487e-06
7.4386705e-09
-2.791318e-08
1.6070449e-08
-6.7888066e-07
6.6281021e-07
-8.4841302e-09
-1.0042621e-06
1.0127463e-06
-7.2347682e-07
7.1275153e-07
1.0725288e-08
-9.9548301e-07
1.0055079e-06
-1.0952733e-09
-8.9295671e-09
-6.2109171e-07
5.978111e-07
2.3280615e-08
-1.2940457e-06
1.3013129e-06
-2.4886328e-08
1.7619095e-08
-1.2520753e-06
1.265749e-06
-4.1387419e-09
-9.5349971e-09
-6.7645254e-07
6.5598012e-07
2.0472421e-08
-1.2754195e-06
1.2842649e-06
-1.8602254e-08
9.7567724e-09
-1.1977621e-06
1.2079448e-06
2.5149965e-09
-1.269769e-08
-6.9324613e-07
6.7461432e-07
1.8631809e-08
-1.2465735e-06
1.256167e-06
-1.4949875e-08
5.3563896e-09
-1.1545939e-06
1.1627595e-06
6.1467903e-09
-1.4312442e-08
-7.0090839e-07
6.8312575e-07
1.7782638e-08
-1.2364764e-06
1.2464037e-06
-1.3346631e-08
3.4193754e-09
-1.1381831e-06
1.1454681e-06
7.7402132e-09
-1.5025259e-08
-7.1319356e-07
6.960033e-07
1.7190253e-08
-1.2419666e-06
1.252202e-06
-1.2146729e-08
1.9113015e-09
-1.1366021e-06
1.1432388e-06
9.0189431e-09
-1.565562e-08
-7.1187139e-07
6.9514776e-07
1.6723624e-08
-1.2268683e-06
1.2372187e-06
-1.1383583e-08
1.0331386e-09
-1.1199546e-06
1.1261567e-06
9.695545e-09
-1.5897653e-08
-7.0944489e-07
6.9270128e-07
1.6743606e-08
-1.2239042e-06
1.2342201e-06
-1.1462927e-08
1.1470337e-09
-1.1180449e-06
1.1242898e-06
9.5909724e-09
-1.5835805e-08
-7.1470843e-07
6.9798446e-07
1.6723973e-08
-1.232529e-06
1.2429135e-06
-1.1334304e-08
9.4982573e-10
-1.1245051e-06
1.1306888e-06
9.7825616e-09
-1.5966242e-08
-7.0724199e-07
6.9056719e-07
1.6674797e-08
-1.2180314e-06
1.2283391e-06
-1.1384828e-08
1.0771485e-09
-1.1124491e-06
1.1186396e-06
9.6261927e-09
-1.5816719e-08
-6.9713883e-07
6.8006055e-07
1.7078274e-08
-1.2123108e-06
1.2223813e-06
-1.2251474e-08
2.180968e-09
-1.1121466e-06
1.1188039e-06
8.6905931e-09
-1.5347946e-08
-6.9046966e-07
6.72904e-07
1.7565658e-08
-1.214393e-06
1.224249e-06
-1.3178603e-08
3.3225655e-09
-1.1184947e-06
1.1256601e-06
7.7394735e-09
-1.4904933e-08
-6.5641145e-07
6.378848e-07
1.8526653e-08
-1.1831922e-06
1.19249e-06
-1.5433693e-08
6.1359153e-09
-1.1213619e-06
1.1301298e-06
5.5880743e-09
-1.4355981e-08
9.8569822e-09
-6.5049212e-07
6.4063514e-07
-6.8406307e-09
-1.020256e-06
1.0270966e-06
-7.041318e-07
6.9673295e-07
7.3988495e-09
-1.0137242e-06
1.0208947e-06
-2.8480912e-10
-6.8856028e-09
-5.8380107e-07
5.7513989e-07
8.6611738e-09
-1.3072007e-06
1.3128107e-06
-8.9123248e-09
3.3023033e-09
-1.2743265e-06
1.2795425e-06
4.6849284e-09
-9.9009321e-09
-6.4260528e-07
6.3321873e-07
9.3865442e-09
-1.2912679e-06
1.2975982e-06
-8.2858123e-09
1.9554621e-09
-1.2145038e-06
1.2187042e-06
5.701638e-09
-9.9020482e-09
-6.6178879e-07
6.5219539e-07
9.5933972e-09
-1.2637198e-06
1.2704053e-06
-7.7555839e-09
1.0701231e-09
-1.1680723e-06
1.1715815e-06
6.3848974e-09
-9.8941739e-09
-6.705486e-07
6.6087516e-07
9.6734461e-09
-1.2542038e-06
1.2610454e-06
-7.5148845e-09
6.7327348e-10
-1.1502322e-06
1.1534377e-06
6.6731326e-09
-9.8786841e-09
-6.8361678e-07
6.7385726e-07
9.7595242e-09
-1.2602037e-06
1.2671644e-06
-7.3421775e-09
3.8149567e-10
-1.1475918e-06
1.1505766e-06
6.8634158e-09
-9.8482343e-09
-6.829235e-07
6.7312152e-07
9.8019773e-09
-1.2453257e-06
1.2523672e-06
-7.2500721e-09
2.0856511e-10
-1.1302486e-06
1.1331028e-06
6.9891895e-09
-9.8434109e-09
-6.8047393e-07
6.7068643e-07
9.7874977e-09
-1.2423091e-06
1.2493421e-06
-7.2531651e-09
2.2017057e-10
-1.1284086e-06
1.1312746e-06
6.9853149e-09
-9.8513537e-09
-6.857671e-07
6.7597198e-07
9.795115e-09
-1.2510321e-06
1.2580741e-06
-7.2305805e-09
1.8858805e-10
-1.1347643e-06
1.1376082e-06
6.9965822e-09
-9.8405119e-09
-6.7836271e-07
6.6856876e-07
9.7939532e-09
-1.2364311e-06
1.2434704e-06
-7.253535e-09
2.1428427e-10
-1.1227289e-06
1.1255819e-06
6.9880629e-09
-9.8410537e-09
-6.6771947e-07
6.5799039e-07
9.7290799e-09
-1.2303215e-06
1.2372702e-06
-7.3623094e-09
4.1363456e-10
-1.1231855e-06
1.1261849e-06
6.8604626e-09
-9.8598745e-09
-6.6041396e-07
6.5076176e-07
9.6522016e-09
-1.2320355e-06
1.2388844e-06
-7.4875234e-09
6.386049e-10
-1.1303596e-06
1.133532e-06
6.7044646e-09
-9.8767708e-09
-6.2525678e-07
6.1596842e-07
9.2883604e-09
-1.2000842e-06
1.2069988e-06
-7.4078784e-09
4.9321972e-10
-1.1358668e-06
1.1396297e-06
7.361019e-09
-1.1123861e-08
7.6179896e-09
-6.321382e-07
6.2452021e-07
-5.9331585e-09
-1.0334362e-06
1.0393693e-06
-6.9013702e-07
6.8410935e-07
6.0276676e-09
-1.0273655e-06
1.033329e-06
-1.0527447e-11
-5.9530341e-09
-5.6975099e-07
5.6640501e-07
3.3459832e-09
-1.3184684e-06
1.3242275e-06
-2.109095e-09
-3.6499943e-09
-1.2824741e-06
1.2838588e-06
9.5315304e-09
-1.091617e-08
-6.2624972e-07
6.2079463e-07
5.455092e-09
-1.3036561e-06
1.3095846e-06
-4.1037987e-09
-1.8247717e-09
-1.2213423e-06
1.2229443e-06
7.8486948e-09
-9.4506974e-09
-6.4454468e-07
6.3811015e-07
6.434528e-09
-1.2766562e-06
1.2826531e-06
-4.9754383e-09
-1.0214773e-09
-1.1739296e-06
1.1755388e-06
7.0972678e-09
-8.7064686e-09
-6.5294102e-07
6.4609319e-07
6.8478347e-09
-1.2673769e-06
1.2733973e-06
-5.3459718e-09
-6.7448817e-10
-1.1556682e-06
1.157281e-06
6.7508944e-09
-8.3637137e-09
-6.6569709e-07
6.5852503e-07
7.1720649e-09
-1.2735437e-06
1.2795627e-06
-5.6476892e-09
-3.7134914e-10
-1.1527212e-06
1.1543156e-06
6.4205222e-09
-8.014889e-09
-6.6480324e-07
6.574168e-07
7.386442e-09
-1.2587956e-06
1.2648354e-06
-5.8411704e-09
-1.9867928e-10
-1.1351915e-06
1.1367751e-06
6.2569817e-09
-7.8405005e-09
-6.6239647e-07
6.5504438e-07
7.3520896e-09
-1.2557686e-06
1.2618115e-06
-5.804977e-09
-2.3790694e-10
-1.133368e-06
1.1349521e-06
6.2988618e-09
-7.8829225e-09
-6.6765776e-07
6.6027084e-07
7.3869169e-09
-1.2644967e-06
1.2705273e-06
-5.84422e-09
-1.8643582e-10
-1.1396881e-06
1.1412635e-06
6.2321697e-09
-7.8075845e-09
-6.6025459e-07
6.528731e-07
7.3814845e-09
-1.2499027e-06
1.2559491e-06
-5.8339333e-09
-2.124365e-10
-1.1276719e-06
1.1292583e-06
6.2782925e-09
-7.8646359e-09
-6.4986508e-07
6.4273754e-07
7.127548e-09
-1.2436639e-06
1.2497112e-06
-5.5921966e-09
-4.5505344e-10
-1.1283422e-06
1.1299495e-06
6.538091e-09
-8.1454409e-09
-6.4282304e-07
6.3595789e-07
6.8651544e-09
-1.2452284e-06
1.2512622e-06
-5.354068e-09
-6.7969264e-10
-1.1357463e-06
1.1373548e-06
6.7689927e-09
-8.3775265e-09
-6.0872207e-07
6.027707e-07
5.9513706e-09
-1.213579e-06
1.2199593e-06
-4.1653436e-09
-2.2149594e-09
-1.1420924e-06
1.1436865e-06
8.6292359e-09
-1.0223384e-08
6.4421452e-09
-6.1755595e-07
6.111138e-07
-5.2681008e-09
-1.0449517e-06
1.0502198e-06
-6.7851644e-07
6.7328121e-07
5.2352267e-09
-1.0388937e-06
1.0441215e-06
8.0192496e-11
-5.3080324e-09
-5.6434299e-07
5.6308757e-07
1.2554206e-09
-1.3300041e-06
1.3357178e-06
1.0936344e-09
-6.8073158e-09
-1.2841842e-06
1.2837802e-06
1.1677651e-08
-1.127365e-08
-6.1631313e-07
6.1248177e-07
3.8313616e-09
-1.3154292e-06
1.3211906e-06
-2.2008299e-09
-3.5606541e-09
-1.2238479e-06
1.2242865e-06
8.7813332e-09
-9.2199104e-09
-6.324677e-07
6.2737213e-07
5.0955719e-09
-1.2884726e-06
1.2941377e-06
-3.6980715e-09
-1.9669766e-09
-1.1766576e-06
1.1774154e-06
7.3451384e-09
-8.1029353e-09
-6.3995744e-07
6.343228e-07
5.6346338e-09
-1.2791982e-06
1.2848157e-06
-4.3455678e-09
-1.2718942e-09
-1.1584607e-06
1.1593278e-06
6.7029955e-09
-7.5701772e-09
-6.520041e-07
6.4594871e-07
6.0553907e-09
-1.2853294e-06
1.2908924e-06
-4.8647738e-09
-6.9820743e-10
-1.1555299e-06
1.1564875e-06
6.1580066e-09
-7.1156635e-09