/*--------------------------------*- C++ -*----------------------------------*\
  =========                 |
  \\      /  F ield         | OpenFOAM: The Open Source CFD Toolbox
   \\    /   O peration     | Website:  https://openfoam.org
    \\  /    A nd           | Version:  7
     \\/     M anipulation  |
\*---------------------------------------------------------------------------*/
FoamFile
{
    version     2.0;
    format      ascii;
    class       volScalarField;
    location    "2000/fluid";
    object      T;
}
// * * * * * * * * * * * * * * * * * * * * * * * * * * * * * * * * * * * * * //

dimensions      [0 0 0 1 0 0 0];

internalField   nonuniform List<scalar> 
13296
(
297
297
297
297
297
297
297
297
297
297
297
297
297
297
297
297
297
297
297
297
297
297
297
297
297
297
297
297
297
297
297
297
297
297
297
297
297
297
297
297
297
297
297
297
297
297
297
297
297
297
297
297
297
297
297
297
297
297
297
297
297
297
297
297
297
297
297
297
297
297
297.00001
297.00001
297
297
297
297
297
297
297
297
297
297
297
297
297
297
297
297
297
297
297
297
297
297
297
297
297
297
297
297
297
297
297
297
297
297
297
297
297
297
297
297
297
297
297
297
297
297
297
297
297
297
297
297
297
297
297
297
297
297
297
297
297
297.00001
297
297
297.00001
297.00001
297
296.99999
296.99999
297.00001
297.00001
297
296.99999
296.99999
297.00001
297.00001
297
296.99999
296.99999
297.00001
297.00001
297
296.99999
296.99999
297.00001
297.00001
297
296.99999
296.99999
297.00001
297.00001
297
296.99999
296.99999
297.00001
297.00001
297
296.99999
296.99999
297.00001
297.00001
297
296.99999
296.99999
297.00001
297.00001
297
296.99999
296.99999
297.00001
297.00001
297
296.99999
296.99999
297.00001
297.00001
297
296.99999
296.99999
297.00001
297.00001
297
296.99999
296.99999
297
297
297.00056
297.0002
297.0001
297.00005
297.00055
297.00072
297.00039
297.00005
297.00001
297.00041
297.00058
297.00029
297.00002
297.00004
297.00045
297.0006
297.00029
297.00001
297.00006
297.00048
297.00062
297.00029
297
297.00007
297.00049
297.00061
297.00028
297
297.00008
297.0005
297.00062
297.00028
297
297.00009
297.00051
297.00063
297.00028
297
297.00009
297.0005
297.00062
297.00028
297
297.00009
297.0005
297.00063
297.00028
297
297.00009
297.00052
297.00064
297.00029
297
297.00008
297.00051
297.00064
297.0003
297.00001
297.00008
297.00051
297.00065
297.00031
297.00001
297
297.00017
297.00007
297.17096
297.10636
297.04916
297.0239
297.26405
297.32474
297.16945
297.02516
297.02694
297.21938
297.27614
297.13882
297.01646
297.03613
297.23313
297.28192
297.13623
297.01372
297.04155
297.24315
297.28863
297.13674
297.01269
297.0436
297.24419
297.28709
297.13428
297.01172
297.04588
297.24581
297.28893
297.13373
297.01112
297.04725
297.2505
297.29318
297.13562
297.01131
297.04667
297.24869
297.29037
297.1343
297.01117
297.04724
297.24876
297.29185
297.1348
297.01117
297.04739
297.25314
297.29673
297.13817
297.012
297.04554
297.25159
297.29567
297.13911
297.01273
297.04422
297.2516
297.29842
297.14247
297.0142
297.01431
297.09425
297.03595
297.42941
298.85879
297.58744
301.0174
297.45575
297.64633
300.5891
297.31167
297.81366
300.60855
297.2637
297.91197
300.65471
297.24575
297.94744
300.61757
297.22885
297.98783
300.6324
297.21838
298.0132
300.67466
297.22177
298.00183
300.63868
297.21916
298.01177
300.6589
297.21914
298.01545
300.71728
297.2335
297.9818
300.70941
297.24584
297.95835
300.76778
297.27506
297.36312
298.72637
297.72479
300.7607
298.04405
304.34254
297.68579
297.93687
303.63759
297.47099
298.21919
303.68919
297.40027
298.38396
303.77631
297.37359
298.44452
303.70025
297.34729
298.50516
303.7414
297.333
298.55149
303.81942
297.33826
298.53544
303.74469
297.33344
298.54667
303.79601
297.33498
298.55831
303.90674
297.35725
298.50796
303.88923
297.37579
298.46919
304.04185
297.42401
297.59931
300.67857
298.05518
302.44219
298.57393
307.6337
297.83786
298.26812
306.56517
297.58774
298.6185
306.59378
297.50862
298.83141
306.69708
297.47906
298.90852
306.57258
297.44783
298.97997
306.62442
297.43305
299.04445
306.73551
297.43972
299.02528
306.62633
297.43297
299.03508
306.70201
297.43648
299.05715
306.8695
297.46323
298.99763
306.85496
297.48429
298.9495
307.11622
297.54076
297.84546
302.35506
298.42466
303.88804
299.16863
310.49167
297.94871
298.67767
309.11538
297.68749
299.05592
309.11917
297.61059
299.30029
309.2345
297.58264
299.38561
309.06969
297.54967
299.4599
309.12725
297.53686
299.53956
309.26608
297.54473
299.51815
309.12923
297.53618
299.52474
309.22236
297.54194
299.55907
309.43697
297.57079
299.49648
309.42498
297.59164
299.44464
309.76934
297.64697
298.11621
303.77025
298.82496
305.12209
299.81966
312.83994
298.04334
299.16415
311.25274
297.78682
299.55259
311.24861
297.71916
299.81878
311.37966
297.69587
299.90706
311.18777
297.66312
299.97929
311.25059
297.65399
300.07184
311.41171
297.66304
300.04854
311.25384
297.65265
300.05089
311.35849
297.66097
300.09876
311.60715
297.69055
300.03724
311.5928
297.70937
299.98517
311.98465
297.756
298.41965
304.9595
299.24616
306.17601
300.50765
314.73511
298.13623
299.70699
313.02284
297.89274
300.09632
313.02793
297.83934
300.37836
313.17895
297.82286
300.46545
312.97188
297.79154
300.53279
313.0405
297.78731
300.63696
313.21923
297.7976
300.61171
313.04591
297.78521
300.60963
313.15738
297.79646
300.67137
313.42851
297.82601
300.61251
313.40709
297.84156
300.56281
313.81591
297.87386
298.74808
305.95976
299.67978
307.07949
301.21562
316.25974
298.24255
300.28438
314.48584
298.00972
300.66941
314.51264
297.97358
300.96238
314.68648
297.96522
301.04666
314.47332
297.93594
301.10844
314.54813
297.93747
301.22332
314.7407
297.94911
301.19598
314.5563
297.93453
301.18965
314.67109
297.94904
301.26503
314.95573
297.97824
301.2093
314.9239
297.9898
301.16271
315.32751
298.00386
299.0919
306.80399
300.1193
307.85837
301.93066
317.49053
298.36337
300.87946
315.69797
298.13979
301.25533
315.75403
298.12264
301.55742
315.95189
298.12319
301.63799
315.73896
298.09616
301.69403
315.82006
298.10405
301.81875
316.02349
298.11716
301.78919
315.83132
298.10019
301.77893
315.94693
298.11829
301.8674
316.23862
298.14706
301.81484
316.19445
298.15421
301.77176
316.57843
298.14735
299.44181
307.52034
300.56008
308.53454
302.64369
318.48532
298.49866
301.47812
316.70721
298.28365
301.84323
316.7961
298.28638
302.15296
317.01786
298.29629
302.22919
316.80923
298.27148
302.27963
316.89641
298.28614
302.41336
317.10843
298.30083
302.38145
316.9109
298.28125
302.36767
317.02562
298.30324
302.46848
317.31996
298.33167
302.4189
317.26266
298.33424
302.37951
317.61865
298.3044
299.79126
308.13241
300.99862
309.1264
303.34843
319.30225
298.64793
302.07117
317.55311
298.4412
302.42523
317.67556
298.46407
302.74129
317.9202
298.48356
302.81278
317.71826
298.46088
302.85791
317.81111
298.48254
302.99987
318.02994
298.49893
302.96553
317.8288
298.47656
302.94865
317.94155
298.50267
303.06096
318.23569
298.53094
303.01404
318.16527
298.52884
302.97836
318.48926
298.47443
300.13618
308.65982
301.43178
309.6491
304.03903
319.98557
298.81037
302.65297
318.26771
298.61188
302.99573
318.42263
298.65479
303.31702
318.68858
298.68383
303.38359
318.49449
298.66305
303.42388
318.5925
298.69187
303.57331
318.81683
298.71004
303.53648
318.61327
298.68474
303.51692
318.72343
298.71516
303.63986
319.01565
298.74345
303.59524
318.93265
298.73675
303.56315
319.22358
298.65654
300.47365
309.11856
301.85815
310.11516
304.71315
320.56384
298.98502
303.21956
318.87678
298.79485
303.55096
319.06199
298.85748
303.8766
319.3474
298.89592
303.93826
319.1615
298.87675
303.97401
319.26411
298.91275
304.13013
319.49292
298.93278
304.0908
319.28777
298.90442
304.06892
319.39504
298.9393
304.20163
319.68442
298.96788
304.15908
319.58969
298.95671
304.13053
319.84843
298.84965
300.80175
309.52164
302.27671
310.53485
305.36922
321.05709
299.17093
303.76834
319.40095
298.98915
304.08854
319.61373
299.071
304.41781
319.91665
299.11862
304.47437
319.73872
299.10076
304.50603
319.84538
299.14387
304.66826
320.07793
299.16584
304.62641
319.8717
299.13432
304.6026
319.97602
299.17376
304.74425
320.26221
299.2029
304.70334
320.15676
299.18746
304.67813
320.38525
299.05259
301.11935
309.87963
302.68671
310.91658
306.00629
321.48375
299.3671
304.29773
319.85667
299.19375
304.60715
320.09414
299.29422
304.93916
320.41265
299.35075
304.99081
320.24215
299.33385
305.01889
320.35234
299.38399
305.1867
320.58805
299.40794
305.14234
320.38107
299.37316
305.11692
320.48253
299.41726
305.26675
320.76553
299.44724
305.22711
320.65041
299.42772
305.20496
320.85115
299.26418
301.42591
310.20107
303.08772
311.26718
306.62388
321.85803
299.57258
304.80697
320.25704
299.40763
305.10593
320.51634
299.52604
305.44027
320.84865
299.59113
305.48721
320.68486
299.57487
305.51219
320.7981
299.63189
305.68511
321.03656
299.65786
305.63827
320.82898
299.61978
305.61152
320.92777
299.66858
305.76883
321.20781
299.69964
305.7301
321.08406
299.67629
305.71076
321.25974
299.48332
301.72119
310.49279
303.47952
311.59215
307.22199
322.19088
299.78643
305.29587
320.6125
299.62978
305.58473
320.89094
299.76537
305.92123
321.2354
299.83867
305.9637
321.07751
299.82275
305.986
321.19339
299.88647
306.16362
321.43428
299.91449
306.11434
321.22619
299.87306
306.08652
321.32255
299.92659
306.25067
321.59996
299.95897
306.21256
321.46857
299.93201
306.19577
321.62184
299.70896
302.00524
310.76023
303.86206
311.89594
307.80085
322.49077
300.00778
305.76468
320.93136
299.85921
306.04395
321.22646
300.01121
306.38248
321.5816
300.09234
306.42075
321.4288
300.07648
306.44076
321.54695
300.14673
306.62274
321.79004
300.1768
306.57107
321.58143
300.13201
306.54237
321.67563
300.19026
306.7128
321.95084
300.22418
306.67504
321.81269
300.19384
306.66053
321.94606
299.94008
302.27847
311.00772
304.2354
312.18211
308.36094
322.76424
300.23579
306.21362
321.22022
300.09498
306.48417
321.52976
300.26261
306.8247
321.89429
300.35122
306.85905
321.74578
300.33516
306.87713
321.86589
300.41174
307.06318
322.11102
300.44386
307.00919
321.90186
300.39571
306.97979
321.99416
300.45867
307.15599
322.26759
300.4943
307.11834
322.12347
300.4608
307.10587
322.23922
300.17572
302.5414
311.23873
304.59968
312.45354
308.90283
323.01637
300.46968
306.6435
321.48434
300.33622
306.90618
321.80637
300.51873
307.24872
322.17914
300.61445
307.27946
322.0342
300.59796
307.29594
322.15602
300.68067
307.48582
322.40304
300.71485
307.42957
322.19327
300.66334
307.39961
322.28393
300.73099
307.58115
322.556
300.76847
307.54339
322.40661
300.73203
307.53271
322.50674
300.41502
302.7946
311.45597
304.95512
312.71249
309.42722
323.25108
300.70874
307.05523
321.72791
300.58212
307.31087
322.06071
300.77878
307.6555
322.44075
300.88127
307.68293
322.29871
300.86415
307.69811
322.42201
300.9528
307.89161
322.67083
300.98902
307.83317
322.46038
300.93416
307.80277
322.54966
301.00645
307.98926
322.82074
301.04593
307.95121
322.6667
301.00673
307.94208
322.75294
300.6572
303.03869
311.66161
305.30194
312.96081
309.9348
323.47143
300.95229
307.4498
321.9543
300.83193
307.69918
322.29637
301.04206
308.04603
322.68283
301.15099
308.07044
322.54311
301.13306
308.08459
322.66771
301.22746
308.28156
322.91825
301.26569
308.22099
322.70704
301.20753
308.19024
322.79515
301.2844
308.38134
323.06561
301.32597
308.34285
322.90743
301.2842
308.33503
322.98127
300.90155
303.27431
311.85737
305.64043
313.19993
310.42631
323.67978
301.19974
307.8282
322.16616
301.08499
308.07208
322.51623
301.30792
308.42131
322.90839
301.42299
308.44299
322.77046
301.4041
308.45635
322.8962
301.50405
308.65664
323.14841
301.54428
308.59402
322.93638
301.48285
308.563
323.02352
301.56424
308.75842
323.29366
301.60799
308.71934
323.13179
301.56382
308.71264
323.19446
301.14745
303.50209
312.04462
305.97085
313.43101
310.90248
323.87792
301.45107
308.19144
322.36567
301.34068
308.43055
322.72263
301.57581
308.78232
323.11986
301.69671
308.80156
322.98328
301.67674
308.81434
323.11004
301.78207
309.01785
323.36387
301.82425
308.95325
323.15094
301.7596
308.92201
323.23729
301.84545
309.12149
323.50738
301.89144
309.08172
323.34221
301.84501
309.07594
323.39474
301.39434
303.72265
312.22443
306.29347
313.65497
311.36402
324.06724
301.70602
308.54053
322.55454
301.59845
308.77555
322.91746
301.84521
309.13005
323.31924
301.97168
309.1471
323.18361
301.95052
309.15947
323.31128
302.06105
309.36611
323.56669
302.10515
309.29961
323.35279
302.03733
309.2682
323.43852
302.12756
309.47151
323.70881
302.17584
309.43095
323.54064
302.12729
309.42591
323.58387
301.64173
303.93656
312.39767
306.60857
313.87255
311.81162
324.24879
301.9639
308.87643
322.73419
301.85781
309.10798
323.10226
302.11566
309.4654
323.50814
302.24744
309.48052
323.37311
302.22502
309.49264
323.50161
302.34058
309.70233
323.75857
302.38657
309.634
323.54366
302.31563
309.60243
323.62888
302.41017
309.80939
323.89958
302.46077
309.76798
323.7287
302.41022
309.76352
323.76329
301.88918
304.14439
312.56503
306.9164
314.08432
312.24594
324.42346
302.22408
309.20007
322.90575
302.11831
309.42871
323.27828
302.38678
309.78924
323.68787
302.52363
309.80267
323.55317
302.49987
309.81466
323.68243
302.62032
310.02735
323.94092
302.66815
309.95726
323.72492
302.59415
309.92556
323.80978
302.69292
310.136
324.08105
302.74585
310.09367
323.90768
302.69341
310.08964
323.93417
302.13633
304.34665
312.72706
307.21724
314.29074
312.66759
324.59194
302.48604
309.51234
323.07015
302.37957
309.73859
323.44655
302.65819
310.1024
323.85954
302.7999
310.11434
323.72491
302.77475
310.12633
323.85487
302.89994
310.34197
324.11486
302.94957
310.27018
323.89775
302.87258
310.23836
323.98233
302.9755
310.45213
324.25432
303.03075
310.40884
324.07866
302.97652
310.4051
324.09746
302.38286
304.54381
312.88422
307.51132
314.49217
313.07715
324.75479
302.74928
309.81406
323.22814
302.64123
310.03836
323.60793
302.92958
310.40562
324.02404
303.07596
310.41629
323.88927
303.04938
310.42836
324.01987
303.17916
310.6469
324.28136
303.23056
310.57349
324.06308
303.15063
310.54154
324.14748
303.25762
310.75853
324.42032
303.3152
310.71425
324.24252
303.25926
310.71068
324.25396
302.62849
304.7363
313.03686
307.79888
314.68891
313.47518
324.91249
303.01337
310.106
323.38036
302.90298
310.32875
323.76311
303.20069
310.69963
324.18211
303.35154
310.70919
324.04701
303.32351
310.72142
324.17823
303.45776
310.94285
324.44119
303.51088
310.86787
324.22171
303.42807
310.8358
324.306
303.53906
311.05589
324.5798
303.59894
311.01059
324.39999
303.54136
311.00708
324.4043
302.87298
304.9245
313.18527
308.08013
314.88118
313.86219
325.06542
303.27795
310.38884
323.52732
303.16456
310.61043
323.91268
303.47126
310.98506
324.33437
303.62641
310.99369
324.19879
303.59692
311.00615
324.33059
303.73552
311.23042
324.59501
303.79031
311.15394
324.3743
303.70468
311.12173
324.45855
303.81959
311.34483
324.7334
303.88175
311.29851
324.5517
303.82261
311.29497
324.54904
303.11614
305.10878
313.32971
308.3553
315.06918
314.23867
325.2139
303.54268
310.66325
323.66946
303.42571
310.884
324.05713
303.74109
311.26253
324.48134
303.90039
311.27038
324.34514
303.86943
311.28311
324.4775
304.01226
311.51019
324.74338
304.06868
311.43227
324.5214
303.9803
311.39992
324.60568
304.09904
311.62594
324.88164
304.16345
311.5786
324.69813
304.1028
311.57494
324.68862
303.3578
305.28945
313.47035
308.62456
315.25303
314.60506
325.35821
303.80727
310.92982
323.80713
303.68625
311.15003
324.19685
304.01
311.53257
324.62345
304.17329
311.53978
324.48653
304.14087
311.55282
324.61942
304.28782
311.78271
324.88675
304.34583
311.7034
324.66348
304.25476
311.67088
324.74783
304.37726
311.89977
325.02498
304.44388
311.85139
324.83974
304.38178
311.84752
324.82344
303.5978
305.4668
313.60737
308.88811
315.43287
314.96178
325.49856
304.07145
311.18912
323.94065
303.94597
311.40901
324.33221
304.27783
311.79567
324.76107
304.44498
311.80238
324.62332
304.41109
311.81577
324.75675
304.56207
312.04844
325.02551
304.62162
311.96779
324.80093
304.52792
311.9351
324.88539
304.6541
312.16677
325.16378
304.72289
312.11736
324.97687
304.65938
312.11322
324.95381
303.83602
305.64111
313.7409
309.14612
315.60877
315.30922
325.63516
304.335
311.44165
324.07028
304.20473
311.66141
324.4635
304.54443
312.0523
324.89452
304.71531
312.05861
324.75586
304.67998
312.07238
324.8898
304.83487
312.30781
325.16
304.89592
312.22587
324.93408
304.79965
312.19299
325.0187
304.92944
312.42739
325.29837
305.00037
312.37695
325.10984
304.93549
312.37247
325.08001
304.07236
305.81259
313.87106
309.39875
315.78082
315.64774
325.76817
304.59772
311.68789
324.19623
304.46238
311.90768
324.59096
304.80968
312.30286
325.02406
304.98418
312.30888
324.88442
304.94741
312.32305
325.01887
305.10613
312.56122
325.29049
305.16864
312.47804
325.06322
305.06986
312.44495
325.14803
305.20319
312.68203
325.42902
305.2762
312.63058
325.2389
305.20999
312.62571
325.20227
304.30674
305.98146
313.99793
309.64614
315.94907
315.97767
325.89773
304.85943
311.92824
324.3187
304.7188
312.14821
324.71481
305.07348
312.54775
325.14992
305.25149
312.55357
325.00923
305.2133
312.56815
325.14419
305.37576
312.80904
325.41723
305.4397
312.72466
325.18858
305.33846
312.69135
325.27361
305.47525
312.93107
325.55596
305.5503
312.87861
325.36428
305.48279
312.8733
325.32081
304.5391
306.14789
314.12159
309.88844
316.11356
316.29933
326.02396
305.12
312.16311
324.43784
304.97387
312.38335
324.83523
305.33573
312.78732
325.27228
305.51715
312.79301
325.13049
305.47757
312.808
325.26596
305.64369
313.05161
325.54042
305.70901
312.96607
325.31037
305.60537
312.93251
325.39566
305.74555
313.17483
325.67938
305.8226
313.12139
325.48617
305.7538
313.11559
325.43579
304.7694
306.31204
314.24212
310.12577
316.27434
316.61301
326.14698
305.37928
312.39283
324.55379
305.22751
312.61343
324.95237
305.59637
313.02187
325.39133
305.78109
313.02751
325.24839
305.74016
313.04291
325.38436
305.90985
313.28922
325.66024
305.97651
313.20256
325.42878
305.87053
313.16874
325.51434
306.01403
313.41362
325.79946
306.09303
313.35921
325.60474
306.02298
313.3529
325.54738
304.9976
306.47405
314.35956
310.35826
316.43142
316.91897
326.26686
305.63718
312.61772
324.66667
305.47965
312.83876
325.06638
305.85531
313.2517
325.50719
306.04326
313.25735
325.36306
306.00099
313.27315
325.49954
306.17419
313.52214
325.77683
306.24216
313.4344
325.54395
306.13389
313.4003
325.62981
306.28064
313.64771
325.91635
306.36153
313.59235
325.72012
306.29025
313.58548
325.65571
305.22368
306.63404
314.47397
310.58601
316.58484
317.21748
326.3837
305.89361
312.83807
324.77658
305.7302
313.05958
325.17736
306.11252
313.47706
325.62
306.30361
313.48276
325.47464
306.26003
313.49897
325.61163
306.43665
313.75063
325.89034
306.5059
313.66184
325.65601
306.39538
313.62744
325.74219
306.54532
313.87735
326.03017
306.62807
313.82105
325.83244
306.55557
313.81361
325.7609
305.44762
306.79211
314.58538
310.80913
316.73459
317.50876
326.49756
306.14848
313.05414
324.88361
305.97913
313.27616
325.28542
306.36793
313.69818
325.72986
306.5621
313.70398
325.58324
306.51723
313.7206
325.72074
306.6972
313.97492
326.00088
306.7677
313.88508
325.76508
306.65499
313.85039
325.85159
306.80805
314.10277
326.14103
306.89261
314.04554
325.9418
306.8189
314.0375
325.86304
305.66941
306.94836
314.69382
311.02772
316.8807
317.79303
326.6085
306.40173
313.26617
324.98784
306.22639
313.4887
325.39064
306.62152
313.91528
325.83686
306.81869
313.92121
325.68895
306.77255
313.93824
325.82697
306.9558
314.1952
326.10853
307.02753
314.10435
325.87125
306.91266
314.06933
325.95811
307.06878
314.32417
326.24903
307.15512
314.26602
326.0483
307.08022
314.25736
325.96222
305.88905
307.10286
314.79933
311.24186
317.02317
318.07049
326.71656
306.65332
313.47435
325.08932
306.47193
313.6974
325.49308
306.87324
314.12857
325.94108
307.07337
314.13463
325.79184
307.02597
314.15206
325.93039
307.21243
314.41166
326.21338
307.28538
314.3198
325.97461
307.16839
314.28447
326.06183
307.32748
314.54175
326.35423
307.41558
314.48267
326.15199
307.33949
314.47338
326.05853
306.10653
307.25568
314.90193
311.45164
317.162
318.34135
326.8218
306.90319
313.67888
325.18811
306.71571
313.90246
325.59282
307.12306
314.33822
326.04258
307.32612
314.3444
325.892
307.27747
314.36224
326.03108
307.46705
314.62449
326.3155
307.54123
314.53159
326.07522
307.42214
314.49596
326.16281
307.58414
314.75568
326.45671
307.67399
314.69563
326.25296
307.59669
314.68574
326.15202
306.32184
307.4069
315.00163
311.65713
317.2972
318.60577
326.92423
307.15132
313.87991
325.28425
306.95772
314.10403
325.68989
307.37093
314.54441
326.14143
307.57694
314.55065
325.98947
307.52703
314.56894
326.12908
307.71963
314.83385
326.41495
307.79509
314.73986
326.17313
307.67391
314.70395
326.26111
307.83871
314.96612
326.55653
307.93035
314.90505
326.35125
307.85182
314.89459
326.24275
306.53498
307.55654
315.09844
311.85841
317.42875
318.86393
327.02388
307.39772
314.0776
325.37778
307.19793
314.30228
325.78434
307.61681
314.74733
326.23767
307.82585
314.75349
326.08429
307.77463
314.77229
326.22444
307.97012
315.03991
326.51178
308.04698
314.9447
326.26841
307.92367
314.90858
326.35677
308.09115
315.17326
326.65374
308.18468
315.11103
326.4469
308.10484
315.10006
326.33075
306.74592
307.70469
315.19239
312.05554
317.55666
319.11597
327.12078
307.64238
314.27204
325.46871
307.4363
314.49734
325.87618
307.86062
314.94716
326.33134
308.07289
314.95297
326.17652
308.02025
314.97242
326.31718
308.21846
315.24287
326.60605
308.29695
315.14617
326.36107
308.17141
315.10997
326.44981
308.34139
315.37728
326.74838
308.43703
315.31363
326.53996
308.35576
315.30229
326.41607
306.95459
307.85138
315.28347
312.24858
317.68091
319.36206
327.21495
307.88536
314.4633
325.55707
307.67281
314.68936
325.96543
308.10223
315.14416
326.42248
308.31819
315.1491
326.26616
308.26388
315.16945
326.40732
308.46452
315.44295
326.69779
308.54512
315.34426
326.45116
308.41714
315.30823
326.54025
308.58931
315.57841
326.8405
308.68752
315.51283
326.63044
308.60455
315.50139
326.49872
307.16086
307.99669
315.37169
312.43758
317.80151
319.60231
327.3064
308.12677
314.65137
325.64285
307.90739
314.8785
326.05206
308.34139
315.33867
326.51116
308.56193
315.34175
326.35325
308.5055
315.36349
326.49485
308.70808
315.64047
326.78706
308.7917
315.53884
326.5387
308.66083
315.50349
326.62808
308.83468
315.77697
326.93015
308.93635
315.70853
326.71835
308.8512
315.69751
326.57868
307.36445
308.14075
315.45706
312.6226
317.91843
319.83687
327.39514
308.36685
314.83614
325.72605
308.13998
315.06494
326.136
308.57758
315.53117
326.59742
308.80449
315.53054
326.43778
308.7451
315.55466
326.57972
308.94866
315.8359
326.87392
309.03705
315.7295
326.62369
308.90248
315.69583
326.71324
309.07703
315.97342
327.01739
309.18389
315.9003
326.80372
309.09566
315.89077
326.65594
307.56486
308.28372
315.53957
312.80367
318.03167
320.06584
327.48124
308.606
315.01722
325.80665
308.3704
315.24892
326.21422
308.81144
315.72232
326.68137
309.04642
315.71375
326.51977
308.98261
315.7431
326.65987
309.18634
316.02988
326.95848
309.28176
315.91431
326.70614
309.14206
315.88536
326.79359
309.3165
316.16843
327.10232
309.43069
316.08638
326.88652
309.33787
316.08132
326.72986
307.76164
308.42586
315.61923
312.98086
318.14121
320.28931
327.56476
308.84487
315.1933
325.88458
308.59834
315.43078
326.27766
309.04365
315.91303
326.76314
309.28855
315.88936
326.59918
309.21794
315.92899
326.72622
309.42232
316.22329
327.04088
309.52664
316.09148
326.78604
309.37954
316.0722
326.8601
309.55421
316.36284
327.18509
309.67759
316.26484
326.96674
309.57768
316.26938
326.79185
307.9558
308.56752
315.69602
313.15418
318.24704
320.5073
327.64583
309.08443
315.36179
325.95826
308.82394
315.61098
326.32419
309.27417
316.10444
326.84292
309.53201
316.0556
326.676
309.45089
316.11255
326.7757
309.65652
316.41725
327.1213
309.77286
316.25923
326.86338
309.61482
316.25651
326.90983
309.79008
316.55779
327.26587
309.92572
316.43393
327.04433
309.81481
316.45524
326.83797
308.14677
308.70917
315.76995
313.32367
318.34915
320.71968
327.72462
309.32604
315.52059
326.02102
309.048
315.79009
326.35049
309.50293
316.29814
326.92097
309.77841
316.20957
326.7501
309.68105
316.29416
326.80519
309.88884
316.6133
327.20003
310.022
316.41467
326.93812
309.84774
316.43849
326.93966
310.02405
316.75483
327.34494
310.17666
316.59079
327.11805
310.04908
316.63935
326.86558
308.33379
308.85147
315.841
313.48937
318.44752
320.92621
327.80142
309.57155
315.66655
326.07085
309.2705
315.96887
326.35063
309.72989
316.49654
326.99768
310.03012
316.34708
326.81745
309.90901
316.47427
326.80902
310.11922
316.81379
327.27744
310.2765
316.55355
327.01013
310.07794
316.61846
326.94388
310.25605
316.9563
327.42269
310.43279
316.73122
327.18159
310.28153
316.82224
326.86981
308.51571
308.99539
315.90917
313.6513
318.54214
321.12698
327.87662
309.82372
315.79528
326.10572
309.49138
316.14832
326.31474
309.95511
316.70337
327.07363
310.29083
316.46183
326.87315
310.13528
316.65343
326.77767
310.34766
317.02231
327.35415
310.54013
316.66948
327.07529
310.30584
316.79677
326.91292
310.48606
317.16582
327.49971
310.69786
316.8489
327.23273
310.51214
317.00458
326.8422
308.6908
309.1424
315.97444
313.80931
318.63301
321.32122
327.95084
310.08674
315.90022
326.12162
309.7106
316.32984
326.22725
310.17888
316.92447
327.14973
310.56638
316.54428
326.91521
310.3598
316.83228
326.69603
310.57437
317.2445
327.43109
310.81887
316.75281
327.129
310.53203
316.97373
326.8316
310.71429
317.38906
327.57692
310.97776
316.93425
327.26904
310.74083
317.18722
326.76894
308.85642
309.29484
316.0368
313.96351
318.72015
321.50745
328.02503
310.36711
315.97147
326.11077
309.92814
316.51532
326.06398
310.40209
317.16906
327.22745
310.86607
316.58015
326.93878
310.5825
317.01123
326.54042
310.80006
317.48925
327.50976
311.12221
316.78901
327.16719
310.75644
317.14891
326.67615
310.94149
317.63494
327.65583
311.28183
316.97287
327.28488
310.96752
317.37096
326.62772
309.00866
309.45629
316.0956
314.11376
318.80357
321.68288
328.10073
310.6746
315.99399
326.05709
310.14393
316.70652
325.78603
310.62723
317.45171
327.30917
311.20449
316.54822
326.93033
310.80319
317.18805
326.27261
311.02691
317.77053
327.59262
311.46511
316.75661
327.177
310.97885
317.31782
326.40818
311.16985
317.91754
327.73885
311.62478
316.94342
327.26586
311.19202
317.55489
326.38062
309.14191
309.63205
316.14844
314.25866
318.88305
321.8424
328.17956
311.0217
315.94436
325.91927
310.35777
316.89902
325.32137
310.86048
317.79568
327.39797
311.60291
316.41716
326.84639
311.0213
317.35148
325.82126
311.26048
318.11048
327.68285
311.86946
316.62396
327.11403
311.19873
317.47668
325.95599
311.40498
318.2591
327.82909
312.02806
316.81443
327.16832
311.41377
317.72583
325.95158
309.24879
309.82843
316.18466
314.38717
318.39541
318.89181
321.96484
330.91174
330.27335
327.84194
311.41527
315.77693
327.46666
326.87869
325.13109
310.5684
317.0442
328.58699
327.59725
324.03501
311.11527
318.18473
329.52624
329.10467
327.06786
312.08414
316.13234
327.8105
327.50939
326.09116
311.23531
317.47853
328.8957
327.93106
324.54359
311.51283
318.48882
329.8372
329.41942
327.35138
312.35902
316.33609
328.01912
327.76853
326.37818
311.41495
317.57994
328.97748
328.01809
324.67292
311.65908
318.63923
329.98769
329.57921
327.49504
312.51461
316.53073
328.1839
327.86852
326.39024
311.63107
317.86847
329.1958
328.20192
324.6493
309.32027
309.99811
316.10133
316.01626
314.50036
317.85261
318.84593
321.95339
328.53884
327.03831
326.97432
311.86502
315.48088
324.40122
323.19683
323.75396
310.77396
317.15015
325.64104
324.07601
322.16478
311.4123
318.62576
326.09226
325.16889
326.10309
312.66928
315.70347
324.79981
324.01328
324.71663
311.44327
317.523
325.86272
324.31045
322.67374
311.80282
318.91301
326.42107
325.48568
326.3806
312.95525
315.90454
325.00593
324.2781
325.01918
311.62563
317.594
325.93287
324.37738
322.79416
311.95117
319.06524
326.5705
325.64668
326.52362
313.10572
316.10229
325.15723
324.34114
324.99675
311.84166
317.93465
326.12696
324.34357
322.65552
309.35021
310.18329
315.02003
315.70937
314.60045
317.58627
318.79663
321.76831
327.38677
326.09543
326.02391
312.3533
315.10958
322.93471
322.42258
322.33847
310.97326
317.2202
324.21653
323.08718
320.44093
311.76698
319.05255
324.38259
323.5483
324.9104
313.3252
315.24023
323.1225
323.1714
323.32767
311.64371
317.4909
324.39515
323.34001
320.95078
312.14402
319.32037
324.72936
323.87955
325.18547
313.62377
315.44201
323.31142
323.4122
323.64037
311.82932
317.52796
324.45966
323.41896
321.06567
312.29476
319.47336
324.8808
324.04756
325.33447
313.7674
315.64056
323.47786
323.50872
323.60914
312.04408
317.9168
324.66567
323.25834
320.68778
309.35281
310.40031
314.79136
315.44862
314.68929
317.35432
318.72321
321.46958
326.38952
325.4271
324.98856
312.86252
314.73303
321.69771
321.69884
321.0356
311.16662
317.26046
323.05144
322.01235
318.99066
312.18071
319.38058
322.91871
322.15383
323.56208
313.99741
314.84242
321.72569
322.34644
322.09576
311.83623
317.40984
323.20571
322.31823
319.51162
312.53521
319.63211
323.29986
322.51288
323.84387
314.30885
315.04823
321.90308
322.57225
322.41169
312.0256
317.41517
323.26797
322.40482
319.62703
312.68784
319.78414
323.45917
322.69419
324.00441
314.44381
315.24619
322.08247
322.69329
322.39578
312.23813
317.83337
323.44146
322.0836
318.90628
309.35484
310.62917
314.60002
315.2352
314.76845
317.14286
318.61937
321.13018
325.44833
324.99682
323.90811
313.37485
314.40462
320.61432
320.99035
319.93008
311.35502
317.27439
322.08688
321.13691
317.84446
312.63849
319.51773
321.47794
320.75943
322.19858
314.6292
314.56022
320.57828
321.61072
321.09158
312.02116
317.3038
322.2473
321.48508
318.388
312.95896
319.76523
321.9102
321.15579
322.49541
314.95269
314.77258
320.74716
321.82314
321.40502
312.21472
317.2849
322.31399
321.58062
318.50952
313.11186
319.91571
322.0831
321.35636
322.66934
315.07761
314.96879
320.93944
321.96738
321.41792
312.42437
317.70943
322.40334
321.03888
317.3847