/*--------------------------------*- C++ -*----------------------------------*\
  =========                 |
  \\      /  F ield         | OpenFOAM: The Open Source CFD Toolbox
   \\    /   O peration     | Website:  https://openfoam.org
    \\  /    A nd           | Version:  7
     \\/     M anipulation  |
\*---------------------------------------------------------------------------*/
FoamFile
{
    version     2.0;
    format      ascii;
    class       volVectorField;
    location    "2000/fluid";
    object      U;
}
// * * * * * * * * * * * * * * * * * * * * * * * * * * * * * * * * * * * * * //

dimensions      [0 1 -1 0 0 0 0];

internalField   nonuniform List<vector> 
13296
(
(0.0010266214 0.99804225 0)
(0.0033319179 0.99938428 0)
(0.0070988323 0.99932597 0)
(0.011190592 0.99914103 0)
(0.017186759 0.99875032 0)
(0.02412685 0.99903354 0)
(0.02673047 1.0001959 0)
(0.022677455 1.0010264 0)
(0.016972348 1.0007394 0)
(0.015250765 0.99983383 0)
(0.017581978 0.99958959 0)
(0.018230927 1.000361 0)
(0.013897238 1.0009988 0)
(0.0085359199 1.0006708 0)
(0.0072436018 0.99975637 0)
(0.010086971 0.9994785 0)
(0.011512321 1.0001944 0)
(0.0081900931 1.0008195 0)
(0.0037621642 1.0005293 0)
(0.0031629774 0.99965405 0)
(0.0065137394 0.99939573 0)
(0.0084016398 1.0001104 0)
(0.0055359779 1.0007446 0)
(0.0014677765 1.0004801 0)
(0.0010891167 0.99962659 0)
(0.0045435664 0.99938449 0)
(0.0064728301 1.0001057 0)
(0.0036123097 1.0007464 0)
(-0.00049106237 1.0004901 0)
(-0.00089082902 0.99962052 0)
(0.0026461607 0.99935611 0)
(0.0048385164 1.0000425 0)
(0.0023890669 1.0006686 0)
(-0.0012946255 1.0004235 0)
(-0.0013524608 0.99956894 0)
(0.0024249379 0.99932163 0)
(0.0047802747 1.0000182 0)
(0.0024455764 1.0006518 0)
(-0.0011611376 1.0004132 0)
(-0.0011891125 0.99956953 0)
(0.002552469 0.99933496 0)
(0.0047907204 1.0000455 0)
(0.0022800401 1.0006842 0)
(-0.001503737 1.0004411 0)
(-0.0016391558 0.99957684 0)
(0.0021253674 0.99931656 0)
(0.0045561179 0.99999715 0)
(0.0023732272 1.0006206 0)
(-0.0010387631 1.000376 0)
(-0.00084189929 0.99952676 0)
(0.0031758713 0.99927792 0)
(0.0057827121 0.99997139 0)
(0.0037302568 1.0005996 0)
(0.0004459382 1.0003509 0)
(0.00075235763 0.99951332 0)
(0.0048274965 0.99927355 0)
(0.0074093138 0.99998333 0)
(0.0052724586 1.0006149 0)
(0.0019248711 1.000355 0)
(0.0022158382 0.99951474 0)
(0.0062873463 0.99928018 0)
(0.0087411449 1.0000348 0)
(0.0060500989 1.0007836 0)
(0.0012156272 1.0007366 0)
(-0.0013728131 1.000131 0)
(-0.00088674273 0.99982158 0)
(0.00092406196 0.9926454 0)
(0.0092403835 0.99237685 0)
(0.021447053 0.99204588 0)
(0.032376887 0.98993287 0)
(0.05122169 0.98412124 0)
(0.076914145 0.98712285 0)
(0.087477629 1.0024548 0)
(0.071257685 1.0137282 0)
(0.04876868 1.0099023 0)
(0.042965517 0.99730706 0)
(0.055016754 0.9937452 0)
(0.060244544 1.0043674 0)
(0.043733618 1.01328 0)
(0.02269305 1.008973 0)
(0.018376106 0.99631817 0)
(0.031949045 0.99243428 0)
(0.039487156 1.0023707 0)
(0.026197522 1.0110609 0)
(0.0081762168 1.0072103 0)
(0.0060533093 0.99506156 0)
(0.021109207 0.99146438 0)
(0.029983596 1.0013771 0)
(0.018110055 1.0101406 0)
(0.0012301122 1.0066069 0)
(-0.00018552372 0.99470612 0)
(0.015170566 0.99134165 0)
(0.02413329 1.0013377 0)
(0.012236739 1.0101693 0)
(-0.0048135398 1.0067383 0)
(-0.0063198429 0.99463592 0)
(0.0092434936 0.99101442 0)
(0.019014356 1.0005694 0)
(0.0084637283 1.009206 0)
(-0.0072056404 1.0059099 0)
(-0.0076319563 0.99400895 0)
(0.0086401123 0.99060656 0)
(0.018874476 1.0002827 0)
(0.0086672812 1.0090019 0)
(-0.0067570313 1.0057819 0)
(-0.0070785919 0.99401264 0)
(0.0090975226 0.9907665 0)
(0.018961815 1.00062 0)
(0.0081636142 1.0094103 0)
(-0.0078653294 1.0061338 0)
(-0.0085603766 0.9941107 0)
(0.0076528326 0.99054723 0)
(0.018123326 1.0000249 0)
(0.0084055571 1.0086179 0)
(-0.0064084094 1.0053304 0)
(-0.0060652201 0.99350525 0)
(0.010915518 0.99008866 0)
(0.021895971 0.9997151 0)
(0.012567883 1.0083644 0)
(-0.001843593 1.0050261 0)
(-0.0011549319 0.99334743 0)
(0.016008949 0.99002815 0)
(0.026902859 0.9998589 0)
(0.017284381 1.0085594 0)
(0.00266531 1.0050891 0)
(0.0033088268 0.99335318 0)
(0.02054568 0.99005758 0)
(0.031321303 1.0003681 0)
(0.020496055 1.010467 0)
(0.0017432636 1.0096659 0)
(-0.006998518 1.0011783 0)
(-0.0032103446 0.99747657 0)
(-0.0040874875 0.99308808 0)
(0.010526254 0.97479445 0)
(0.037380255 0.97882123 0)
(0.045404827 0.97450125 0)
(0.077207849 0.94589876 0)
(0.1431578 0.95135661 0)
(0.17469618 1.0099762 0)
(0.12733787 1.0529515 0)
(0.064992789 1.0374812 0)
(0.052404183 0.98403143 0)
(0.098621738 0.9689995 0)
(0.12435833 1.0140821 0)
(0.079033564 1.0504617 0)
(0.020635629 1.0343067 0)
(0.01103968 0.98097767 0)
(0.059407018 0.96549944 0)
(0.088698274 1.0081536 0)
(0.04949227 1.0435304 0)
(-0.0032585812 1.0290441 0)
(-0.0089468528 0.97729682 0)
(0.041555734 0.96297687 0)
(0.072763428 1.0053021 0)
(0.036103233 1.0406845 0)
(-0.014605963 1.0272286 0)
(-0.01892465 0.9762332 0)
(0.031942199 0.96275018 0)
(0.063165956 1.0052699 0)
(0.02637111 1.040821 0)
(-0.024770961 1.0278226 0)
(-0.029372843 0.9760487 0)
(0.021484499 0.96190007 0)
(0.054072439 1.0028933 0)
(0.019958334 1.037782 0)
(-0.028461117 1.0252615 0)
(-0.031134832 0.97424501 0)
(0.020761147 0.96080026 0)
(0.0539641 1.002103 0)
(0.020399803 1.0371813 0)
(-0.027559198 1.0248472 0)
(-0.030002336 0.97423276 0)
(0.021811646 0.96125296 0)
(0.054358047 1.0031702 0)
(0.019582193 1.0385076 0)
(-0.029663256 1.0260251 0)
(-0.032901009 0.97457521 0)
(0.018811258 0.96064347 0)
(0.052438472 1.0013022 0)
(0.019818203 1.0360057 0)
(-0.027036659 1.0235266 0)
(-0.028464279 0.97285494 0)
(0.024485758 0.95936904 0)
(0.058809656 1.0004441 0)
(0.026785419 1.0352733 0)
(-0.019349273 1.0225515 0)
(-0.020210463 0.97244541 0)
(0.03320249 0.95916368 0)
(0.067335355 1.0009298 0)
(0.034638125 1.0359523 0)
(-0.01198658 1.0227029 0)
(-0.012957927 0.97244935 0)
(0.040932069 0.9588562 0)
(0.075838371 1.0015282 0)
(0.043245928 1.0403147 0)
(-0.0078631818 1.0353994 0)
(-0.025694069 0.99844606 0)
(-0.0055526844 0.98981897 0)
(-0.030713844 1.0385712 0)
(-0.0070892824 0.92644682 0)
(0.07374785 0.96891997 0)
(0.035364911 0.97432678 0)
(0.06645768 0.85706272 0)
(0.23999692 0.85245497 0)
(0.33961117 1.0366253 0)
(0.20056227 1.1594359 0)
(0.034790057 1.1145589 0)
(9.8159209e-05 0.92692223 0)
(0.16050925 0.88056912 0)
(0.25993184 1.0395678 0)
(0.12928964 1.1504855 0)
(-0.02966739 1.106892 0)
(-0.058401625 0.92098857 0)
(0.10417929 0.87561886 0)
(0.20719992 1.0271207 0)
(0.087675207 1.1347388 0)
(-0.061416282 1.095861 0)
(-0.083405968 0.91369289 0)
(0.079900115 0.87193636 0)
(0.18442839 1.0214642 0)
(0.069331395 1.1285257 0)
(-0.076042916 1.09226 0)
(-0.095774824 0.91145633 0)
(0.067266069 0.87186246 0)
(0.17149193 1.0216257 0)
(0.056081996 1.1290407 0)
(-0.09043523 1.0940513 0)
(-0.11070175 0.91121298 0)
(0.051360103 0.87057359 0)
(0.15730452 1.016314 0)
(0.046923339 1.1221277 0)
(-0.094677915 1.0883754 0)
(-0.11194225 0.90785587 0)
(0.050974297 0.86877235 0)
(0.15727882 1.0148873 0)
(0.047667484 1.1208868 0)
(-0.093105643 1.0873873 0)
(-0.10992699 0.90776013 0)
(0.053125138 0.8695804 0)
(0.15855719 1.0173212 0)
(0.046654023 1.1240153 0)
(-0.096668861 1.0902844 0)
(-0.11493054 0.90856964 0)
(0.047555896 0.8685155 0)
(0.15447893 1.0130816 0)
(0.046588338 1.1183126 0)
(-0.092331443 1.08469 0)
(-0.10793795 0.90544418 0)
(0.055951515 0.86628161 0)
(0.16333502 1.0115426 0)
(0.056173631 1.1168247 0)
(-0.081397822 1.0824238 0)
(-0.096295856 0.90476065 0)
(0.068593331 0.86578613 0)
(0.17562241 1.0127883 0)
(0.066952178 1.1185059 0)
(-0.071609693 1.0827433 0)
(-0.087013971 0.90479487 0)
(0.078975641 0.86428148 0)
(0.18858652 1.011 0)
(0.085411005 1.122285 0)
(-0.05067512 1.102837 0)
(-0.085796411 0.96505269 0)
(0.0074130095 0.972792 0)
(-0.12927044 1.3110287 0)
(-0.143652 0.71702112 0)
(0.231141 1.0223072 0)
(-0.03978253 1.083716 0)
(-0.12293731 0.60895432 0)
(0.39861841 0.55726917 0)
(0.73371274 1.1821657 0)
(0.30533815 1.4321914 0)
(-0.12262327 1.3384383 0)
(-0.28402543 0.6901692 0)
(0.27289839 0.58625432 0)
(0.61846722 1.1721914 0)
(0.21266563 1.4086933 0)
(-0.19917721 1.32492 0)
(-0.3478975 0.67879235 0)
(0.2010757 0.58381743 0)
(0.54326119 1.1467538 0)
(0.15998709 1.3781582 0)
(-0.23373218 1.3039903 0)
(-0.37155387 0.66925219 0)
(0.1724807 0.58123214 0)
(0.51203943 1.1361466 0)
(0.13731785 1.3665558 0)
(-0.25022546 1.2969366 0)
(-0.38411567 0.66616062 0)
(0.15850536 0.58180671 0)
(0.49667751 1.1367522 0)
(0.12146016 1.3683039 0)
(-0.2690403 1.301137 0)
(-0.404248 0.66594759 0)
(0.1374397 0.58090261 0)
(0.4747707 1.1254472 0)
(0.10950865 1.3545327 0)
(-0.27214619 1.2897577 0)
(-0.40233528 0.66189141 0)
(0.13775177 0.57920433 0)
(0.47443488 1.1232601 0)
(0.11044037 1.352223 0)
(-0.26961894 1.2876581 0)
(-0.39887667 0.66164756 0)
(0.14141881 0.58007312 0)
(0.47804736 1.1284301 0)
(0.10958563 1.3587857 0)
(-0.27548142 1.2939314 0)
(-0.40754313 0.66288795 0)
(0.1326497 0.57896243 0)
(0.46932938 1.1193848 0)
(0.10869737 1.3472128 0)
(-0.26807869 1.2827452 0)
(-0.39571593 0.65927923 0)
(0.14309551 0.5764909 0)
(0.47985308 1.1171919 0)
(0.1201795 1.3442713 0)
(-0.25365268 1.2781771 0)
(-0.38001207 0.65863528 0)
(0.15887522 0.57558817 0)
(0.49631675 1.1203518 0)
(0.13333887 1.347687 0)
(-0.24210307 1.2791117 0)
(-0.3697747 0.65895981 0)
(0.16938133 0.57266425 0)
(0.50997238 1.1100385 0)
(0.1635362 1.3394578 0)
(-0.18429043 1.2902816 0)
(-0.30608638 0.75323506 0)
(0.12029113 0.97444067 0)
(0.046522139 1.5689375 0)
(0.29645806 1.4057104 0)
(0.009608869 1.5056609 0)
(0.68228525 1.6958784 0)
(0.2448241 1.9575213 0)
(-0.023229625 1.8570654 0)
(0.60191351 1.6717908 0)
(0.1774477 1.9160528 0)
(-0.068706546 1.8216316 0)
(0.54722015 1.6290683 0)
(0.1387551 1.8657029 0)
(-0.091341385 1.7793729 0)
(0.52486183 1.6124069 0)
(0.12217309 1.8472177 0)
(-0.10181392 1.7646754 0)
(0.51536947 1.6157764 0)
(0.11066159 1.8520583 0)
(-0.11223574 1.7708345 0)
(0.49864894 1.5955191 0)
(0.10181222 1.8283329 0)
(-0.11545724 1.7497716 0)
(0.49795793 1.5918 0)
(0.10246968 1.824282 0)
(-0.11423788 1.7460875 0)
(0.50156765 1.6018716 0)
(0.10189248 1.83634 0)
(-0.11685676 1.7573347 0)
(0.49372906 1.5845327 0)
(0.10114178 1.8155866 0)
(-0.11388137 1.737779 0)
(0.49987851 1.5796036 0)
(0.1094687 1.8096002 0)
(-0.10601673 1.7309784 0)
(0.51109007 1.5843971 0)
(0.11900167 1.8149128 0)
(-0.099143826 1.7343559 0)
(0.5171062 1.5545883 0)
(0.14287165 1.7784279 0)
(-0.067029859 1.7177387 0)
(0.19333643 1.2138672 0)
(0.062017206 1.6123323 0)
(0.15110406 1.2109119 0)
(0.068374145 1.5905366 0)
(0.26132783 1.0909818 0)
(0.15079768 2.0857537 0)
(0.072304445 1.9871166 0)
(0.24272974 1.1689972 0)
(0.12162935 2.0506003 0)
(0.055200044 1.912294 0)
(0.22603812 1.1881889 0)
(0.10325561 2.0014449 0)
(0.044374573 1.8494126 0)
(0.21918819 1.1970948 0)
(0.095449842 1.9839631 0)
(0.039740052 1.8258629 0)
(0.2170389 1.2146686 0)
(0.090604072 1.9918079 0)
(0.036894438 1.8255341 0)
(0.21123845 1.2106659 0)
(0.08593222 1.9669433 0)
(0.034048811 1.8000667 0)
(0.21079041 1.206827 0)
(0.086072727 1.9622538 0)
(0.034126437 1.7968226 0)
(0.21246127 1.2152694 0)
(0.086228993 1.9759985 0)
(0.034247627 1.8074951 0)
(0.20916727 1.2029743 0)
(0.085205374 1.9527551 0)
(0.033568719 1.7879428 0)
(0.21040625 1.1882382 0)
(0.088636219 1.9442778 0)
(0.035552035 1.7858346 0)
(0.21361785 1.1793551 0)
(0.092957599 1.9483785 0)
(0.038098015 1.794359 0)
(0.21265395 1.1286455 0)
(0.10153198 1.9001865 0)
(0.043817455 1.7938635 0)
(0.10524328 1.0884702 0)
(0.05689652 1.6473964 0)
(0.10474318 1.1716099 0)
(0.066900257 1.6347166 0)
(0.12224294 0.9913368 0)
(0.1002932 2.1198877 0)
(0.063420272 2.0584252 0)
(0.12501401 1.084935 0)
(0.092741024 2.0908633 0)
(0.059795268 1.9662431 0)
(0.12260699 1.1144448 0)
(0.08571331 2.0444002 0)
(0.055281291 1.8937758 0)
(0.12135838 1.1278947 0)
(0.082701269 2.028207 0)
(0.053499656 1.8661249 0)
(0.12196968 1.1485978 0)
(0.081650085 2.0374688 0)
(0.053411549 1.8629331 0)
(0.11974233 1.1469425 0)
(0.079185128 2.0129024 0)
(0.051524353 1.835314 0)
(0.11932285 1.1429556 0)
(0.079011133 2.0080264 0)
(0.051288452 1.832233 0)
(0.12050468 1.1515739 0)
(0.07965993 2.0221859 0)
(0.052057022 1.8427356 0)
(0.11849977 1.1394332 0)
(0.078348101 1.9984221 0)
(0.050674001 1.823036 0)
(0.1178447 1.1224928 0)
(0.078982746 1.9888527 0)
(0.050583624 1.822981 0)
(0.1182547 1.1110734 0)
(0.080408449 1.9920548 0)
(0.051271062 1.8338351 0)
(0.11354578 1.0543176 0)
(0.080264506 1.9404839 0)
(0.04889089 1.8399659 0)
(0.075325632 1.0534588 0)
(0.047883604 1.6715325 0)
(0.082200641 1.1430778 0)
(0.057687301 1.6613157 0)
(0.072926222 0.94389214 0)
(0.070100774 2.138923 0)
(0.047484467 2.0860789 0)
(0.080705645 1.039851 0)
(0.072645843 2.1136505 0)
(0.050123134 1.9871972 0)
(0.081960423 1.0713051 0)
(0.071287164 2.0690388 0)
(0.048987813 1.9106193 0)
(0.082601725 1.0856807 0)
(0.070764231 2.0536632 0)
(0.048680405 1.8811528 0)
(0.084498461 1.1070535 0)
(0.071584196 2.0635871 0)
(0.049772485 1.8765917 0)
(0.083677645 1.1059675 0)
(0.070297673 2.0393712 0)
(0.048535106 1.8481206 0)
(0.083261557 1.1019734 0)
(0.069976163 2.0344355 0)
(0.048195277 1.8451315 0)
(0.084285469 1.1106156 0)
(0.07084322 2.0486928 0)
(0.04913671 1.8554828 0)
(0.082726441 1.098533 0)
(0.069436989 2.0248425 0)
(0.047636278 1.8358415 0)
(0.081243524 1.0811312 0)
(0.06866912 2.01477 0)
(0.046680585 1.8367598 0)
(0.080411984 1.0691789 0)
(0.068655517 2.0174673 0)
(0.046488129 1.8486679 0)
(0.074417654 1.0118715 0)
(0.064196408 1.9652546 0)
(0.040938821 1.8583046 0)
(0.059168281 1.0254953 0)
(0.039465417 1.6922486 0)
(0.067838429 1.1216191 0)
(0.048220315 1.6823915 0)
(0.053276443 0.92673345 0)
(0.051581539 2.1572722 0)
(0.034067631 2.0955475 0)
(0.061394529 1.0174465 0)
(0.058512142 2.1333045 0)
(0.039626281 1.9957301 0)
(0.063309465 1.0466239 0)
(0.059690779 2.0893241 0)
(0.040188487 1.9182178 0)
(0.06420897 1.060041 0)
(0.060291972 2.0742142 0)
(0.040571022 1.8883598 0)
(0.066073404 1.0806359 0)
(0.061937079 2.0842998 0)
(0.042088796 1.8835075 0)
(0.065570186 1.079023 0)
(0.061246517 2.0602489 0)
(0.041227197 1.8548632 0)
(0.065175164 1.0751189 0)
(0.060866522 2.0553076 0)
(0.040867525 1.8518875 0)
(0.066112102 1.0836847 0)
(0.061801685 2.0695504 0)
(0.041809714 1.8621981 0)
(0.064741968 1.0716003 0)
(0.060410649 2.0457345 0)
(0.040376219 1.8425876 0)
(0.063198911 1.0548199 0)
(0.059037537 2.0355352 0)
(0.03912539 1.8437139 0)
(0.062318635 1.0435115 0)
(0.058349754 2.0380643 0)
(0.038562379 1.8558263 0)
(0.056623945 0.98850294 0)
(0.05207419 1.9866363 0)
(0.031919978 1.866272 0)
(0.048203695 1.0027954 0)
(0.032343568 1.7104678 0)
(0.057009449 1.1033701 0)
(0.040015275 1.700553 0)
(0.043196671 0.92004968 0)
(0.039123172 2.1761368 0)
(0.02429056 2.096571 0)
(0.050397459 1.002853 0)
(0.047910837 2.1523822 0)
(0.031027012 1.9986527 0)
(0.052235969 1.028233 0)
(0.050224917 2.1083178 0)
(0.03231802 1.921828 0)
(0.053101353 1.0400379 0)
(0.051319132 2.0931477 0)
(0.032996348 1.8921939 0)
(0.054814501 1.0593754 0)
(0.053268745 2.1031204 0)
(0.034666862 1.887464 0)
(0.054359971 1.0569516 0)
(0.052868972 2.0790737 0)
(0.034054721 1.8589201 0)
(0.05400481 1.0531743 0)
(0.052481556 2.0741511 0)
(0.033697732 1.8559267 0)
(0.054856975 1.0615995 0)
(0.053403641 2.0883406 0)
(0.034602787 1.8662412 0)
(0.053608371 1.0495507 0)
(0.05208187 2.0645828 0)
(0.03326687 1.8466476 0)
(0.052207012 1.0337388 0)
(0.050504996 2.0544652 0)
(0.031901849 1.847674 0)
(0.051392189 1.0234366 0)
(0.049539866 2.0570358 0)
(0.031181189 1.859669 0)
(0.04620831 0.97187651 0)
(0.04267852 2.0069796 0)
(0.024435136 1.8695086 0)
(0.039814877 0.9832078 0)
(0.026464612 1.72673 0)
(0.048264179 1.087289 0)
(0.033159472 1.7166492 0)
(0.036570077 0.91768912 0)
(0.030319807 2.1945066 0)
(0.017191421 2.0935851 0)
(0.042685724 0.99182954 0)
(0.039791284 2.1708742 0)
(0.024178934 1.9990041 0)
(0.044242311 1.0129164 0)
(0.042498068 2.1263213 0)
(0.025773139 1.9234288 0)
(0.04499057 1.0228876 0)
(0.043756563 2.1109327 0)
(0.026610738 1.8942972 0)
(0.046519784 1.0407902 0)
(0.045759056 2.1206852 0)
(0.028316354 1.8899808 0)
(0.046076036 1.0374778 0)
(0.045510258 2.096568 0)
(0.027867587 1.8617015 0)
(0.045756805 1.0338405 0)
(0.045136586 2.0916707 0)
(0.027525825 1.8586634 0)
(0.046531297 1.0420946 0)
(0.046012029 2.1057996 0)
(0.028375028 1.8690295 0)
(0.045389689 1.0301111 0)
(0.044780515 2.0820971 0)
(0.027146491 1.8494189 0)
(0.044142315 1.0153891 0)
(0.04317795 2.0721374 0)
(0.025769773 1.850121 0)
(0.043427249 1.0062173 0)
(0.042133378 2.0748379 0)
(0.024976236 1.8617906 0)
(0.038810969 0.95852968 0)
(0.035330353 2.0264215 0)
(0.018486733 1.8704775 0)
(0.033110244 0.96603622 0)
(0.021635901 1.741314 0)
(0.041022751 1.0729311 0)
(0.027474281 1.7310565 0)
(0.031373575 0.91716744 0)
(0.023951603 2.2122167 0)
(0.011889743 2.0887314 0)
(0.036618851 0.98265558 0)
(0.033381338 2.1885471 0)
(0.018711254 1.9979233 0)
(0.037853077 0.99941513 0)
(0.036123501 2.143338 0)
(0.020467161 1.9239332 0)
(0.038472531 1.0075544 0)
(0.037401439 2.1276594 0)
(0.021365955 1.8954845 0)
(0.039823382 1.0240033 0)
(0.03934141 2.1371522 0)
(0.0230234 1.8917165 0)
(0.039386315 1.019815 0)
(0.039173069 2.1129256 0)
(0.022681676 1.8637663 0)
(0.039099689 1.0163193 0)
(0.038822422 2.1080544 0)
(0.022362286 1.8606724 0)
(0.039801767 1.0243911 0)
(0.039637255 2.1221255 0)
(0.02314609 1.8711111 0)
(0.038760111 1.0124923 0)
(0.038502622 2.0984686 0)
(0.022027086 1.8514667 0)
(0.037657562 0.99886875 0)
(0.036959565 2.0886936 0)
(0.020701204 1.851751 0)
(0.037041578 0.99083071 0)
(0.035925003 2.091561 0)
(0.019899094 1.8629957 0)
(0.032996153 0.94702688 0)
(0.029488392 2.044874 0)
(0.01369368 1.8702661 0)
(0.027665941 0.95088442 0)
(0.017657728 1.754449 0)
(0.034991198 1.0600204 0)
(0.022745798 1.7440185 0)
(0.026975666 0.91757085 0)
(0.019223439 2.2291261 0)
(0.0077916095 2.0830298 0)
(0.031566685 0.97456915 0)
(0.028184822 2.2052747 0)
(0.014374979 1.9960499 0)
(0.032536585 0.98718442 0)
(0.030823366 2.1593682 0)
(0.016162646 1.9238163 0)
(0.033027743 0.99358362 0)
(0.032052496 2.1433664 0)
(0.01706332 1.8961104 0)
(0.034214275 1.008644 0)
(0.033875536 2.1525857 0)
(0.018628423 1.8929399 0)
(0.033787108 1.0036359 0)
(0.033750983 2.128228 0)
(0.018359344 1.8653389 0)
(0.033530161 1.0002769 0)
(0.033427064 2.1233815 0)
(0.018065446 1.8621849 0)
(0.034164883 1.0081663 0)
(0.034176565 2.1374009 0)
(0.018780996 1.8727055 0)
(0.033217252 0.99636356 0)
(0.033138776 2.1137781 0)
(0.017768639 1.8530184 0)
(0.032245954 0.9837906 0)
(0.031694457 2.1041945 0)
(0.016525644 1.8528507 0)
(0.031721447 0.97682553 0)
(0.030712836 2.1072467 0)
(0.015750879 1.8636369 0)
(0.028213743 0.93674519 0)
(0.024735202 2.0622363 0)
(0.0098789693 1.8692167 0)
(0.023236673 0.93744785 0)
(0.014266959 1.7663613 0)
(0.029643218 1.0483234 0)
(0.018696028 1.7557667 0)
(0.02331627 0.91811933 0)
(0.015587301 2.2451786 0)
(0.0046569829 2.0768744 0)
(0.027266611 0.96719094 0)
(0.023907436 2.2210356 0)
(0.010915191 1.9937671 0)
(0.028037818 0.97597882 0)
(0.026384655 2.17441 0)
(0.012656558 1.9233036 0)
(0.028428273 0.98073734 0)
(0.027534747 2.1581021 0)
(0.013521669 1.8963516 0)
(0.029458103 0.99449823 0)
(0.029219299 2.1670541 0)
(0.014973003 1.8937876 0)
(0.029040324 0.98874675 0)
(0.029119987 2.1425497 0)
(0.014754589 1.8665335 0)
(0.028811344 0.98551598 0)
(0.028823544 2.1377265 0)
(0.014487117 1.863319 0)
(0.02938253 0.99322947 0)
(0.029507864 2.1517003 0)
(0.01513503 1.8739244 0)
(0.028523784 0.9815285 0)
(0.028563402 2.1281012 0)
(0.014223968 1.8541898 0)
(0.027676548 0.96992858 0)
(0.027232678 2.1187101 0)
(0.013079028 1.8535666 0)
(0.027240085 0.96396329 0)
(0.026322074 2.1219456 0)
(0.012350768 1.8638902 0)
(0.024178438 0.92737861 0)
(0.02082016 2.0784999 0)
(0.0068790294 1.8676947 0)
(0.019343243 0.92542872 0)
(0.011328087 1.7770417 0)
(0.024917244 1.0378522 0)
(0.015171933 1.7663081 0)
(0.020219725 0.9184262 0)
(0.012723801 2.2604026 0)
(0.0022848995 2.0706395 0)
(0.023577772 0.96032414 0)
(0.02035067 2.2358457 0)
(0.0081370629 1.9912724 0)
(0.024189426 0.96563036 0)
(0.022643236 2.1885052 0)
(0.0097913646 1.9225245 0)
(0.024509081 0.96890122 0)
(0.023704452 2.171891 0)
(0.010599344 1.8963039 0)
(0.025414607 0.98145096 0)
(0.025248154 2.1806041 0)
(0.011920918 1.894333 0)
(0.025013344 0.97501641 0)
(0.025168495 2.1559586 0)
(0.011752182 1.8674155 0)
(0.024809177 0.97190809 0)
(0.024898119 2.1511538 0)
(0.011508166 1.8641413 0)
(0.025322624 0.9794501 0)
(0.02552092 2.1650921 0)
(0.012095359 1.8748318 0)
(0.024546247 0.96785659 0)
(0.024664123 2.1415044 0)
(0.011277469 1.8550476 0)
(0.023805033 0.95717075 0)
(0.023445472 2.1322807 0)
(0.010223708 1.8539777 0)
(0.023430877 0.95212881 0)
(0.02260917 2.135684 0)
(0.0095574528 1.8638514 0)
(0.020740749 0.91872815 0)
(0.017576183 2.0937135 0)
(0.0045194763 1.8658949 0)
(0.015826246 0.91481669 0)
(0.0089059305 1.786637 0)
(0.021029837 1.0284392 0)
(0.012231698 1.7757737 0)
(0.017500637 0.91840466 0)
(0.010437751 2.2748236 0)
(0.00049087698 2.0645114 0)
(0.020404301 0.95385755 0)
(0.017372675 2.2497413 0)
(0.0058959317 1.9886802 0)
(0.02088629 0.95601939 0)
(0.019475863 2.2017107 0)
(0.0074380585 1.9215603 0)
(0.021149566 0.95795211 0)
(0.020452114 2.1847977 0)
(0.0081967445 1.8960333 0)
(0.021952421 0.96940705 0)
(0.021868386 2.1932774 0)
(0.009442503 1.8946341 0)
(0.021577542 0.96236628 0)
(0.021805896 2.1684824 0)
(0.0093169122 1.8680399 0)
(0.021394399 0.95937078 0)
(0.021559985 2.1636943 0)
(0.009096418 1.8647077 0)
(0.021856839 0.96675128 0)
(0.02212521 2.1776029 0)
(0.0096246931 1.8754821 0)
(0.021155427 0.95526607 0)
(0.021350033 2.1540178 0)
(0.008894242 1.8556475 0)
(0.020498281 0.94540926 0)
(0.020235979 2.1449571 0)
(0.0079211798 1.8541453 0)
(0.020173591 0.94119535 0)
(0.019466079 2.1485292 0)
(0.0072767236 1.8635875 0)
(0.017804055 0.91067387 0)
(0.014876763 2.1079319 0)
(0.0026623969 1.8639326 0)
(0.013054271 0.90542328 0)
(0.006939034 1.7953086 0)
(0.01778254 1.0199315 0)
(0.0098087876 1.7843279 0)
(0.01511179 0.91810674 0)
(0.0085992278 2.2884619 0)
(-0.00086112963 2.0585866 0)
(0.017670875 0.94772477 0)
(0.014867585 2.2627679 0)
(0.0040809423 1.9860604 0)
(0.018049299 0.94706128 0)
(0.016797052 2.2140781 0)
(0.0055417867 1.9204687 0)
(0.01826767 0.94779242 0)
(0.017697113 2.1968725 0)
(0.0062786964 1.8956019 0)
(0.018979856 0.95825765 0)
(0.018985013 2.2051329 0)
(0.0073970712 1.8947434 0)
(0.01863159 0.95068327 0)
(0.01893087 2.1801893 0)
(0.0072882468 1.8684511 0)
(0.018467492 0.94779101 0)
(0.018708616 2.1754151 0)
(0.0070918804 1.8650642 0)
(0.018883343 0.9550207 0)
(0.01921902 2.189301 0)
(0.0075621683 1.8759185 0)
(0.018250807 0.943643 0)
(0.018519755 2.1657098 0)
(0.0069131079 1.8560348 0)
(0.017668641 0.93453356 0)
(0.017512222 2.156799 0)
(0.0060463148 1.8541263 0)
(0.017386303 0.93106287 0)
(0.016811662 2.1605322 0)
(0.0054689815 1.8631626 0)
(0.015293261 0.90313467 0)
(0.012623335 2.1212133 0)
(0.0012002565 1.8618823 0)
(0.010812345 0.89705177 0)
(0.0053502164 1.8031581 0)
(0.015056963 1.0122288 0)
(0.0078200255 1.7920718 0)
(0.013039107 0.91753591 0)
(0.0071142716 2.3013469 0)
(-0.0018716292 2.0529169 0)
(0.015315441 0.94188257 0)
(0.012758664 2.2749753 0)
(0.00261486 1.9834544 0)
(0.015613261 0.93868598 0)
(0.014532951 2.2256507 0)
(0.0040304539 1.9193018 0)
(0.01579355 0.93834464 0)
(0.015349303 2.2081696 0)
(0.0046902362 1.8950501 0)
(0.016424185 0.94792181 0)
(0.01651242 2.2162319 0)
(0.005689899 1.8946951 0)
(0.016101533 0.93988075 0)
(0.016463641 2.1911423 0)
(0.0055975825 1.8686817 0)
(0.015954751 0.93708274 0)
(0.016263365 2.1863794 0)
(0.0054229729 1.8652438 0)
(0.016328059 0.94417216 0)
(0.016723078 2.2002489 0)
(0.0058408718 1.8761732 0)
(0.015758606 0.93290032 0)
(0.016093524 2.1766441 0)
(0.0052655406 1.8562425 0)
(0.015244475 0.92446091 0)
(0.015188128 2.1678686 0)
(0.004493593 1.8539568 0)
(0.014998988 0.92165245 0)
(0.014554385 2.1717503 0)
(0.0039762935 1.8626164 0)
(0.013146497 0.89605216 0)
(0.010740241 2.1336173 0)
(4.4832802e-05 1.8597893 0)
(0.0089833332 0.88957495 0)
(0.0040709964 1.8102709 0)
(0.012764578 1.005248 0)
(0.0061911227 1.7990895 0)
(0.01124728 0.91670336 0)
(0.0059122601 2.3135149 0)
(-0.0026176481 2.0475292 0)
(0.01328786 0.93629681 0)
(0.010993659 2.2864056 0)
(0.001498571 1.9809017 0)
(0.013519784 0.93084004 0)
(0.012605209 2.2364826 0)
(0.0027826548 1.9180888 0)
(0.013667224 0.9295481 0)
(0.013340578 2.2187447 0)
(0.003377013 1.894405 0)
(0.014224386 0.93833137 0)
(0.014387326 2.2266272 0)
(0.0042702504 1.8945152 0)
(0.013925988 0.92988426 0)
(0.014342414 2.201395 0)
(0.0041930829 1.8687581 0)
(0.013794926 0.92717211 0)
(0.014162344 2.196641 0)
(0.0040381299 1.865273 0)
(0.014129493 0.93413134 0)
(0.014575589 2.2104996 0)
(0.0044086824 1.8762725 0)
(0.013617611 0.9229631 0)
(0.014009693 2.1868748 0)
(0.0038999869 1.8562973 0)
(0.013164773 0.91512265 0)
(0.01319814 2.1782208 0)
(0.0032134583 1.8536636 0)
(0.012951933 0.91290203 0)
(0.012627728 2.1822402 0)
(0.002749729 1.861976 0)
(0.011313527 0.88937824 0)
(0.009181487 2.1451952 0)
(-0.00078199524 1.8576967 0)
(0.0074850825 0.88288892 0)
(0.0030443144 1.8167209 0)
(0.010833906 0.99891667 0)
(0.0048595649 1.8054539 0)
(0.009700988 0.9156275 0)
(0.0049389408 2.325003 0)
(-0.0031623537 2.0424339 0)
(0.01154228 0.93094271 0)
(0.0095062385 2.2971039 0)
(0.00060032921 1.9784263 0)
(0.011718624 0.92348201 0)
(0.010958562 2.2466247 0)
(0.0017597123 1.9168495 0)
(0.011837611 0.92135036 0)
(0.011618412 2.2286467 0)
(0.0022961261 1.8936869 0)
(0.012328772 0.92942569 0)
(0.012558026 2.236367 0)
(0.0030933433 1.8942252 0)
(0.012053249 0.92062709 0)
(0.012516101 2.2109962 0)
(0.0030297582 1.8687032 0)
(0.011936405 0.91799307 0)
(0.012354486 2.2062489 0)
(0.0028925474 1.8651744 0)
(0.01223582 0.92483163 0)
(0.01272537 2.2201017 0)
(0.0032203789 1.8762389 0)
(0.011776298 0.9137643 0)
(0.012217367 2.1964512 0)
(0.0027717481 1.8562219 0)
(0.011378308 0.90645815 0)
(0.011491467 2.1879057 0)
(0.0021621958 1.8532685 0)
(0.011194445 0.90475766 0)
(0.010979831 2.1920521 0)
(0.0017468081 1.8612622 0)
(0.0097493321 0.88307125 0)
(0.0078857583 2.1559943 0)
(-0.0014089743 1.8556374 0)
(0.0062542723 0.8769045 0)
(0.0022233312 1.8225739 0)
(0.0092059612 0.99317064 0)
(0.0037734787 1.8112297 0)
(0.0083691137 0.91433002 0)
(0.004161098 2.3358468 0)
(-0.0035217259 2.0376331 0)
(0.010037758 0.92580746 0)
(0.0082446337 2.3071215 0)
(-0.0001233284 1.976039 0)
(0.010166962 0.91657599 0)
(0.0095490812 2.2561232 0)
(0.00092607074 1.9155972 0)
(0.010261438 0.91370474 0)
(0.01013957 2.2379214 0)
(0.0014102465 1.8929127 0)
(0.010693539 0.92115013 0)
(0.010981247 2.245496 0)
(0.0021208487 1.8938436 0)
(0.010439535 0.9120489 0)
(0.010941744 2.2199913 0)
(0.0020693554 1.8685367 0)
(0.010335507 0.90948589 0)
(0.01079691 2.2152486 0)
(0.0019481197 1.8649677 0)
(0.010603128 0.91621274 0)
(0.01112933 2.2291002 0)
(0.0022374994 1.8760923 0)
(0.010191089 0.90524333 0)
(0.010673808 2.2054192 0)
(0.0018428638 1.8560364 0)
(0.0098419491 0.8984129 0)
(0.010025695 2.1969697 0)
(0.0013025392 1.8527899 0)
(0.0096837201 0.89717137 0)
(0.009568056 2.2012327 0)
(0.0009307403 1.8604924 0)
(0.0084129067 0.8771036 0)
(0.0067987706 2.1660727 0)
(-0.0018901707 1.853628 0)
(0.0052406478 0.87154388 0)
(0.0015697249 1.8278881 0)
(0.007831749 0.98795283 0)
(0.0028899399 1.8164741 0)
(0.0072254039 0.91283014 0)
(0.003551433 2.3460718 0)
(-0.0037000361 2.0331363 0)
(0.0087391204 0.92088235 0)
(0.0071715153 2.3165033 0)
(-0.00069988106 1.9737446 0)
(0.0088285695 0.91009023 0)
(0.0083405504 2.2650215 0)
(0.00025091084 1.9143428 0)
(0.0089020786 0.90656931 0)
(0.0088678455 2.2466113 0)
(0.00068755924 1.8920966 0)
(0.0092815142 0.91345519 0)
(0.0096204195 2.254056 0)
(0.0013203176 1.8933863 0)
(0.0090477026 0.90409487 0)
(0.0095829728 2.2284222 0)
(0.0012795716 1.8682757 0)
(0.0089551954 0.90159636 0)
(0.009453338 2.2236823 0)
(0.0011726804 1.8646699 0)
(0.0091941364 0.90821983 0)
(0.0097509493 2.2375367 0)
(0.001427541 1.8758498 0)
(0.0088250522 0.89734519 0)
(0.0093428676 2.2138211 0)
(0.001081319 1.8557578 0)
(0.0085192671 0.89093767 0)
(0.008765118 2.2054561 0)
(0.00060303742 1.8522437 0)
(0.0083836174 0.8901001 0)
(0.0083567166 2.2098257 0)
(0.0002704424 1.8596806 0)
(0.0072692341 0.87145393 0)
(0.005883801 2.1754807 0)
(-0.002249671 1.8516773 0)
(0.0044043634 0.86673831 0)
(0.0010521598 1.8327156 0)
(0.0066704704 0.98321229 0)
(0.0021734361 1.8212384 0)
(0.0062437932 0.91115152 0)
(0.0030625 2.3557136 0)
(-0.0038069013 2.028935 0)
(0.0076165175 0.91616043 0)
(0.0062567412 2.3252917 0)
(-0.0011539424 1.971545 0)
(0.0076727592 0.90399623 0)
(0.0073026343 2.2733601 0)
(-0.0002920124 1.9130951 0)
(0.0077284871 0.89990619 0)
(0.007772611 2.2547565 0)
(0.00010156865 1.8912493 0)
(0.0080610969 0.90629585 0)
(0.0084445257 2.2620857 0)
(0.00066431876 1.8928668 0)
(0.0078461856 0.8967151 0)
(0.0084088898 2.2363278 0)
(0.00063316075 1.8679352 0)
(0.0077640088 0.89427518 0)
(0.0082929801 2.2315891 0)
(0.00053910988 1.8642957 0)
(0.0079771369 0.90080298 0)
(0.0085591763 2.2454498 0)
(0.00076306701 1.8755262 0)
(0.0076468304 0.89001985 0)
(0.0081938813 2.2216962 0)
(0.00046014213 1.8554011 0)
(0.0073794183 0.88398778 0)
(0.0076795645 2.213405 0)
(3.7189633e-05 1.8516435 0)
(0.0072635798 0.88350503 0)
(0.0073157379 2.2178721 0)
(-0.00025986529 1.8588378 0)
(0.006288812 0.8661038 0)
(0.005111673 2.1842652 0)
(-0.002509551 1.8497911 0)
(0.0037104147 0.86242662 0)
(0.0006450125 1.8371028 0)
(0.0056880938 0.97890343 0)
(0.0015945771 1.8255684 0)
(0.0054006041 0.90932333 0)
(0.0026663562 2.3648064 0)
(-0.0038518305 2.0250145 0)
(0.0066447111 0.91163581 0)
(0.0054753654 2.3335266 0)
(-0.0015066272 1.9694404 0)
(0.0066735104 0.89826823 0)
(0.006409781 2.2811771 0)
(-0.00072482196 1.9118605 0)
(0.0067142966 0.89368103 0)
(0.0068280042 2.2623944 0)
(-0.00037005269 1.8903802 0)
(0.0070053787 0.89963112 0)
(0.0074271979 2.2696211 0)
(0.00012963566 1.892297 0)
(0.0068081121 0.88986411 0)
(0.007393217 2.2437444 0)
(0.00010709936 1.8675282 0)
(0.0067351812 0.88747741 0)
(0.0072896731 2.2390054 0)