/*--------------------------------*- C++ -*----------------------------------*\
  =========                 |
  \\      /  F ield         | OpenFOAM: The Open Source CFD Toolbox
   \\    /   O peration     | Website:  https://openfoam.org
    \\  /    A nd           | Version:  7
     \\/     M anipulation  |
\*---------------------------------------------------------------------------*/
FoamFile
{
    version     2.0;
    format      ascii;
    class       regIOobject;
    location    "constant/polyMesh";
    object      cellZones;
}
// * * * * * * * * * * * * * * * * * * * * * * * * * * * * * * * * * * * * * //

2
(
fluid
{
    type cellZone;
cellLabels      List<label>
3324
(
0
1
2
3
4
5
6
7
8
9
10
11
12
13
14
15
16
17
18
19
20
21
22
23
24
25
26
27
28
29
30
31
32
33
34
35
36
37
38
39
40
41
42
43
44
45
46
47
48
49
50
51
52
53
54
55
56
57
58
59
60
61
62
63
64
65
66
67
68
69
70
71
72
73
74
75
76
77
78
79
80
81
82
83
84
85
86
87
88
89
90
91
92
93
94
95
96
97
98
99
100
101
102
103
104
105
106
107
108
109
110
111
112
113
114
115
116
117
118
119
120
121
122
123
124
125
126
127
128
129
130
131
132
133
134
135
136
137
138
139
140
141
142
143
144
145
146
147
148
149
150
151
152
153
154
155
156
157
158
159
160
161
162
163
164
165
166
167
168
169
170
171
172
173
174
175
176
177
178
179
180
181
182
183
184
185
186
187
188
189
190
191
192
193
194
195
196
197
198
199
200
201
202
203
204
205
206
207
208
209
210
211
212
213
214
215
216
217
218
219
220
221
222
223
224
225
226
227
228
229
230
231
232
233
234
235
236
237
238
239
240
241
242
243
244
245
246
247
248
249
250
251
252
253
254
255
256
257
258
259
260
261
262
263
264
265
266
267
268
269
270
271
272
273
274
275
276
277
278
279
280
281
282
283
284
285
286
287
288
289
290
291
292
293
294
295
296
297
298
299
300
301
302
303
304
305
306
307
308
309
310
311
312
313
314
315
316
317
318
319
320
321
322
323
324
325
326
327
328
329
330
332
333
336
337
338
341
342
343
346
347
348
351
352
353
356
357
358
361
362
363
366
367
368
371
372
373
376
377
378
381
382
383
386
387
388
391
392
393
395
396
398
399
402
403
404
407
408
409
412
413
414
417
418
419
422
423
424
427
428
429
432
433
434
437
438
439
442
443
444
447
448
449
452
453
454
457
458
459
461
462
464
465
468
469
470
473
474
475
478
479
480
483
484
485
488
489
490
493
494
495
498
499
500
503
504
505
508
509
510
513
514
515
518
519
520
523
524
525
527
528
530
531
534
535
536
539
540
541
544
545
546
549
550
551
554
555
556
559
560
561
564
565
566
569
570
571
574
575
576
579
580
581
584
585
586
589
590
591
593
594
596
597
600
601
602
605
606
607
610
611
612
615
616
617
620
621
622
625
626
627
630
631
632
635
636
637
640
641
642
645
646
647
650
651
652
655
656
657
659
660
662
663
666
667
668
671
672
673
676
677
678
681
682
683
686
687
688
691
692
693
696
697
698
701
702
703
706
707
708
711
712
713
716
717
718
721
722
723
725
726
728
729
732
733
734
737
738
739
742
743
744
747
748
749
752
753
754
757
758
759
762
763
764
767
768
769
772
773
774
777
778
779
782
783
784
787
788
789
791
792
794
795
798
799
800
803
804
805
808
809
810
813
814
815
818
819
820
823
824
825
828
829
830
833
834
835
838
839
840
843
844
845
848
849
850
853
854
855
857
858
860
861
864
865
866
869
870
871
874
875
876
879
880
881
884
885
886
889
890
891
894
895
896
899
900
901
904
905
906
909
910
911
914
915
916
919
920
921
923
924
926
927
930
931
932
935
936
937
940
941
942
945
946
947
950
951
952
955
956
957
960
961
962
965
966
967
970
971
972
975
976
977
980
981
982
985
986
987
989
990
992
993
996
997
998
1001
1002
1003
1006
1007
1008
1011
1012
1013
1016
1017
1018
1021
1022
1023
1026
1027
1028
1031
1032
1033
1036
1037
1038
1041
1042
1043
1046
1047
1048
1051
1052
1053
1055
1056
1058
1059
1062
1063
1064
1067
1068
1069
1072
1073
1074
1077
1078
1079
1082
1083
1084
1087
1088
1089
1092
1093
1094
1097
1098
1099
1102
1103
1104
1107
1108
1109
1112
1113
1114
1117
1118
1119
1121
1122
1124
1125
1128
1129
1130
1133
1134
1135
1138
1139
1140
1143
1144
1145
1148
1149
1150
1153
1154
1155
1158
1159
1160
1163
1164
1165
1168
1169
1170
1173
1174
1175
1178
1179
1180
1183
1184
1185
1187
1188
1190
1191
1194
1195
1196
1199
1200
1201
1204
1205
1206
1209
1210
1211
1214
1215
1216
1219
1220
1221
1224
1225
1226
1229
1230
1231
1234
1235
1236
1239
1240
1241
1244
1245
1246
1249
1250
1251
1253
1254
1256
1257
1260
1261
1262
1265
1266
1267
1270
1271
1272
1275
1276
1277
1280
1281
1282
1285
1286
1287
1290
1291
1292
1295
1296
1297
1300
1301
1302
1305
1306
1307
1310
1311
1312
1315
1316
1317
1319
1320
1322
1323
1326
1327
1328
1331
1332
1333
1336
1337
1338
1341
1342
1343
1346
1347
1348
1351
1352
1353
1356
1357
1358
1361
1362
1363
1366
1367
1368
1371
1372
1373
1376
1377
1378
1381
1382
1383
1385
1386
1388
1389
1392
1393
1394
1397
1398
1399
1402
1403
1404
1407
1408
1409
1412
1413
1414
1417
1418
1419
1422
1423
1424
1427
1428
1429
1432
1433
1434
1437
1438
1439
1442
1443
1444
1447
1448
1449
1451
1452
1454
1455
1458
1459
1460
1463
1464
1465
1468
1469
1470
1473
1474
1475
1478
1479
1480
1483
1484
1485
1488
1489
1490
1493
1494
1495
1498
1499
1500
1503
1504
1505
1508
1509
1510
1513
1514
1515
1517
1518
1520
1521
1524
1525
1526
1529
1530
1531
1534
1535
1536
1539
1540
1541
1544
1545
1546
1549
1550
1551
1554
1555
1556
1559
1560
1561
1564
1565
1566
1569
1570
1571
1574
1575
1576
1579
1580
1581
1583
1584
1586
1587
1590
1591
1592
1595
1596
1597
1600
1601
1602
1605
1606
1607
1610
1611
1612
1615
1616
1617
1620
1621
1622
1625
1626
1627
1630
1631
1632
1635
1636
1637
1640
1641
1642
1645
1646
1647
1649
1650
1652
1653
1656
1657
1658
1661
1662
1663
1666
1667
1668
1671
1672
1673
1676
1677
1678
1681
1682
1683
1686
1687
1688
1691
1692
1693
1696
1697
1698
1701
1702
1703
1706
1707
1708
1711
1712
1713
1715
1716
1718
1719
1722
1723
1724
1727
1728
1729
1732
1733
1734
1737
1738
1739
1742
1743
1744
1747
1748
1749
1752
1753
1754
1757
1758
1759
1762
1763
1764
1767
1768
1769
1772
1773
1774
1777
1778
1779
1781
1782
1784
1785
1788
1789
1790
1793
1794
1795
1798
1799
1800
1803
1804
1805
1808
1809
1810
1813
1814
1815
1818
1819
1820
1823
1824
1825
1828
1829
1830
1833
1834
1835
1838
1839
1840
1843
1844
1845
1847
1848
1850
1851
1854
1855
1856
1859
1860
1861
1864
1865
1866
1869
1870
1871
1874
1875
1876
1879
1880
1881
1884
1885
1886
1889
1890
1891
1894
1895
1896
1899
1900
1901
1904
1905
1906
1909
1910
1911
1913
1914
1916
1917
1920
1921
1922
1925
1926
1927
1930
1931
1932
1935
1936
1937
1940
1941
1942
1945
1946
1947
1950
1951
1952
1955
1956
1957
1960
1961
1962
1965
1966
1967
1970
1971
1972
1975
1976
1977
1979
1980
1982
1983
1986
1987
1988
1991
1992
1993
1996
1997
1998
2001
2002
2003
2006
2007
2008
2011
2012
2013
2016
2017
2018
2021
2022
2023
2026
2027
2028
2031
2032
2033
2036
2037
2038
2041
2042
2043
2045
2046
2048
2049
2052
2053
2054
2057
2058
2059
2062
2063
2064
2067
2068
2069
2072
2073
2074
2077
2078
2079
2082
2083
2084
2087
2088
2089
2092
2093
2094
2097
2098
2099
2102
2103
2104
2107
2108
2109
2111
2112
2114
2115
2118
2119
2120
2123
2124
2125
2128
2129
2130
2133
2134
2135
2138
2139
2140
2143
2144
2145
2148
2149
2150
2153
2154
2155
2158
2159
2160
2163
2164
2165
2168
2169
2170
2173
2174
2175
2177
2178
2180
2181
2184
2185
2186
2189
2190
2191
2194
2195
2196
2199
2200
2201
2204
2205
2206
2209
2210
2211
2214
2215
2216
2219
2220
2221
2224
2225
2226
2229
2230
2231
2234
2235
2236
2239
2240
2241
2243
2244
2246
2247
2250
2251
2252
2255
2256
2257
2260
2261
2262
2265
2266
2267
2270
2271
2272
2275
2276
2277
2280
2281
2282
2285
2286
2287
2290
2291
2292
2295
2296
2297
2300
2301
2302
2305
2306
2307
2309
2310
2312
2313
2316
2317
2318
2321
2322
2323
2326
2327
2328
2331
2332
2333
2336
2337
2338
2341
2342
2343
2346
2347
2348
2351
2352
2353
2356
2357
2358
2361
2362
2363
2366
2367
2368
2371
2372
2373
2375
2376
2378
2379
2382
2383
2384
2387
2388
2389
2392
2393
2394
2397
2398
2399
2402
2403
2404
2407
2408
2409
2412
2413
2414
2417
2418
2419
2422
2423
2424
2427
2428
2429
2432
2433
2434
2437
2438
2439
2441
2442
2444
2445
2448
2449
2450
2453
2454
2455
2458
2459
2460
2463
2464
2465
2468
2469
2470
2473
2474
2475
2478
2479
2480
2483
2484
2485
2488
2489
2490
2493
2494
2495
2498
2499
2500
2503
2504
2505
2507
2508
2510
2511
2514
2515
2516
2519
2520
2521
2524
2525
2526
2529
2530
2531
2534
2535
2536
2539
2540
2541
2544
2545
2546
2549
2550
2551
2554
2555
2556
2559
2560
2561
2564
2565
2566
2569
2570
2571
2573
2574
2576
2577
2580
2581
2582
2585
2586
2587
2590
2591
2592
2595
2596
2597
2600
2601
2602
2605
2606
2607
2610
2611
2612
2615
2616
2617
2620
2621
2622
2625
2626
2627
2630
2631
2632
2635
2636
2637
2639
2640
2642
2643
2646
2647
2648
2651
2652
2653
2656
2657
2658
2661
2662
2663
2666
2667
2668
2671
2672
2673
2676
2677
2678
2681
2682
2683
2686
2687
2688
2691
2692
2693
2696
2697
2698
2701
2702
2703
2705
2706
2708
2709
2712
2713
2714
2717
2718
2719
2722
2723
2724
2727
2728
2729
2732
2733
2734
2737
2738
2739
2742
2743
2744
2747
2748
2749
2752
2753
2754
2757
2758
2759
2762
2763
2764
2767
2768
2769
2771
2772
2774
2775
2778
2779
2780
2783
2784
2785
2788
2789
2790
2793
2794
2795
2798
2799
2800
2803
2804
2805
2808
2809
2810
2813
2814
2815
2818
2819
2820
2823
2824
2825
2828
2829
2830
2833
2834
2835
2837
2838
2840
2841
2844
2845
2846
2849
2850
2851
2854
2855
2856
2859
2860
2861
2864
2865
2866
2869
2870
2871
2874
2875
2876
2879
2880
2881
2884
2885
2886
2889
2890
2891
2894
2895
2896
2899
2900
2901
2903
2904
2906
2907
2910
2911
2912
2915
2916
2917
2920
2921
2922
2925
2926
2927
2930
2931
2932
2935
2936
2937
2940
2941
2942
2945
2946
2947
2950
2951
2952
2955
2956
2957
2960
2961
2962
2965
2966
2967
2969
2970
2972
2973
2976
2977
2978
2981
2982
2983
2986
2987
2988
2991
2992
2993
2996
2997
2998
3001
3002
3003
3006
3007
3008
3011
3012
3013
3016
3017
3018
3021
3022
3023
3026
3027
3028
3031
3032
3033
3035
3036
3038
3039
3042
3043
3044
3047
3048
3049
3052
3053
3054
3057
3058
3059
3062
3063
3064
3067
3068
3069
3072
3073
3074
3077
3078
3079
3082
3083
3084
3087
3088
3089
3092
3093
3094
3097
3098
3099
3101
3102
3104
3105
3108
3109
3110
3113
3114
3115
3118
3119
3120
3123
3124
3125
3128
3129
3130
3133
3134
3135
3138
3139
3140
3143
3144
3145
3148
3149
3150
3153
3154
3155
3158
3159
3160
3163
3164
3165
3167
3168
3170
3171
3174
3175
3176
3179
3180
3181
3184
3185
3186
3189
3190
3191
3194
3195
3196
3199
3200
3201
3204
3205
3206
3209
3210
3211
3214
3215
3216
3219
3220
3221
3224
3225
3226
3229
3230
3231
3233
3234
3236
3237
3240
3241
3242
3245
3246
3247
3250
3251
3252
3255
3256
3257
3260
3261
3262
3265
3266
3267
3270
3271
3272
3275
3276
3277
3280
3281
3282
3285
3286
3287
3290
3291
3292
3295
3296
3297
3299
3300
3302
3303
3306
3307
3308
3311
3312
3313
3316
3317
3318
3321
3322
3323
3326
3327
3328
3331
3332
3333
3336
3337
3338
3341
3342
3343
3346
3347
3348
3351
3352
3353
3356
3357
3358
3361
3362
3363
3365
3366
3368
3369
3372
3373
3374
3377
3378
3379
3382
3383
3384
3387
3388
3389
3392
3393
3394
3397
3398
3399
3402
3403
3404
3407
3408
3409
3412
3413
3414
3417
3418
3419
3422
3423
3424
3427
3428
3429
3431
3432
3434
3435
3438
3439
3440
3443
3444
3445
3448
3449
3450
3453
3454
3455
3458
3459
3460
3463
3464
3465
3468
3469
3470
3473
3474
3475
3478
3479
3480
3483
3484
3485
3488
3489
3490
3493
3494
3495
3497
3498
3500
3501
3504
3505
3506
3509
3510
3511
3514
3515
3516
3519
3520
3521
3524
3525
3526
3529
3530
3531
3534
3535
3536
3539
3540
3541
3544
3545
3546
3549
3550
3551
3554
3555
3556
3559
3560
3561
3563
3564
3566
3567
3570
3571
3572
3575
3576
3577
3580
3581
3582
3585
3586
3587
3590
3591
3592
3595
3596
3597
3600
3601
3602
3605
3606
3607
3610
3611
3612
3615
3616
3617
3620
3621
3622
3625
3626
3627
3629
3630
3632
3633
3636
3637
3638
3641
3642
3643
3646
3647
3648
3651
3652
3653
3656
3657
3658
3661
3662
3663
3666
3667
3668
3671
3672
3673
3676
3677
3678
3681
3682
3683
3686
3687
3688
3691
3692
3693
3695
3696
3698
3699
3702
3703
3704
3707
3708
3709
3712
3713
3714
3717
3718
3719
3722
3723
3724
3727
3728
3729
3732
3733
3734
3737
3738
3739
3742
3743
3744
3747
3748
3749
3752
3753
3754
3757
3758
3759
3761
3762
3764
3765
3768
3769
3770
3773
3774
3775
3778
3779
3780
3783
3784
3785
3788
3789
3790
3793
3794
3795
3798
3799
3800
3803
3804
3805
3808
3809
3810
3813
3814
3815
3818
3819
3820
3823
3824
3825
3827
3828
3830
3831
3834
3835
3836
3839
3840
3841
3844
3845
3846
3849
3850
3851
3854
3855
3856
3859
3860
3861
3864
3865
3866
3869
3870
3871
3874
3875
3876
3879
3880
3881
3884
3885
3886
3889
3890
3891
3893
3894
3896
3897
3900
3901
3902
3905
3906
3907
3910
3911
3912
3915
3916
3917
3920
3921
3922
3925
3926
3927
3930
3931
3932
3935
3936
3937
3940
3941
3942
3945
3946
3947
3950
3951
3952
3955
3956
3957
3959
3960
3962
3963
3966
3967
3968
3971
3972
3973
3976
3977
3978
3981
3982
3983
3986
3987
3988
3991
3992
3993
3996
3997
3998
4001
4002
4003
4006
4007
4008
4011
4012
4013
4016
4017
4018
4021
4022
4023
4025
4026
4028
4029
4032
4033
4034
4037
4038
4039
4042
4043
4044
4047
4048
4049
4052
4053
4054
4057
4058
4059
4062
4063
4064
4067
4068
4069
4072
4073
4074
4077
4078
4079
4082
4083
4084
4087
4088
4089
4091
4092
4094
4095
4098
4099
4100
4103
4104
4105
4108
4109
4110
4113
4114
4115
4118
4119
4120
4123
4124
4125
4128
4129
4130
4133
4134
4135
4138
4139
4140
4143
4144
4145
4148
4149
4150
4153
4154
4155
4157
4158
4160
4161
4164
4165
4166
4169
4170
4171
4174
4175
4176
4179
4180
4181
4184
4185
4186
4189
4190
4191
4194
4195
4196
4199
4200
4201
4204
4205
4206
4209
4210
4211
4214
4215
4216
4219
4220
4221
4223
4224
4226
4227
4230
4231
4232
4235
4236
4237
4240
4241
4242
4245
4246
4247
4250
4251
4252
4255
4256
4257
4260
4261
4262
4265
4266
4267
4270
4271
4272
4275
4276
4277
4280
4281
4282
4285
4286
4287
4289
4290
4291
4292
4293
4294
4295
4296
4297
4298
4299
4300
4301
4302
4303
4304
4305
4306
4307
4308
4309
4310
4311
4312
4313
4314
4315
4316
4317
4318
4319
4320
4321
4322
4323
4324
4325
4326
4327
4328
4329
4330
4331
4332
4333
4334
4335
4336
4337
4338
4339
4340
4341
4342
4343
4344
4345
4346
4347
4348
4349
4350
4351
4352
4353
4354
4355
4356
4357
4358
4359
4360
4361
4362
4363
4364
4365
4366
4367
4368
4369
4370
4371
4372
4373
4374
4375
4376
4377
4378
4379
4380
4381
4382
4383
4384
4385
4386
4387
4388
4389
4390
4391
4392
4393
4394
4395
4396
4397
4398
4399
4400
4401
4402
4403
4404
4405
4406
4407
4408
4409
4410
4411
4412
4413
4414
4415
4416
4417
4418
4419
4420
4421
4422
4423
4424
4425
4426
4427
4428
4429
4430
4431
4432
4433
4434
4435
4436
4437
4438
4439
4440
4441
4442
4443
4444
4445
4446
4447
4448
4449
4450
4451
4452
4453
4454
4455
4456
4457
4458
4459
4460
4461
4462
4463
4464
4465
4466
4467
4468
4469
4470
4471
4472
4473
4474
4475
4476
4477
4478
4479
4480
4481
4482
4483
4484
4485
4486
4487
4488
4489
4490
4491
4492
4493
4494
4495
4496
4497
4498
4499
4500
4501
4502
4503
4504
4505
4506
4507
4508
4509
4510
4511
4512
4513
4514
4515
4516
4517
4518
4519
4520
4521
4522
4523
4524
4525
4526
4527
4528
4529
4530
4531
4532
4533
4534
4535
4536
4537
4538
4539
4540
4541
4542
4543
4544
4545
4546
4547
4548
4549
4550
4551
4552
4553
4554
4555
4556
4557
4558
4559
4560
4561
4562
4563
4564
4565
4566
4567
4568
4569
4570
4571
4572
4573
4574
4575
4576
4577
4578
4579
4580
4581
4582
4583
4584
4585
4586
4587
4588
4589
4590
4591
4592
4593
4594
4595
4596
4597
4598
4599
4600
4601
4602
4603
4604
4605
4606
4607
4608
4609
4610
4611
4612
4613
4614
4615
4616
4617
4618
4619
4620
4621
4622
4623
4624
4625
4626
4627
4628
4629
4630
4631
4632
4633
4634
4635
4636
4637
4638
4639
4640
4641
4642
4643
4644
4645
4646
4647
4648
4649
4650
4651
4652
4653
4654
4655
4656
4657
4658
4659
4660
4661
4662
4663
4664
4665
4666
4667
4668
4669
4670
4671
4672
4673
4674
4675
4676
4677
4678
4679
4680
4681
4682
4683
4684
4685
4686
4687
4688
4689
4690
4691
4692
4693
4694
4695
4696
4697
4698
4699
4700
4701
4702
4703
4704
4705
4706
4707
4708
4709
4710
4711
4712
4713
4714
4715
4716
4717
4718
4719
4720
4721
4722
4723
4724
4725
4726
4727
4728
4729
4730
4731
4732
4733
4734
4735
4736
4737
4738
4739
4740
4741
4742
4743
4744
4745
4746
4747
4748
4749
4750
4751
4752
4753
4754
4755
4756
4757
4758
4759
4760
4761
4762
4763
4764
4765
4766
4767
4768
4769
4770
4771
4772
4773
4774
4775
4776
4777
4778
4779
4780
4781
4782
4783
4784
4785
4786
4787
4788
4789
4790
4791
4792
4793
4794
4795
4796
4797
4798
4799
4800
4801
4802
4803
4804
4805
4806
4807
4808
4809
4810
4811
4812
4813
4814
4815
4816
4817
4818
4819
4820
4821
4822
4823
4824
4825
4826
4827
4828
4829
4830
4831
4832
4833
4834
4835
4836
4837
4838
4839
4840
4841
4842
4843
4844
4845
4846
4847
4848
4849
4850
4851
4852
4853
4854
4855
4856
4857
4858
4859
4860
4861
4862
4863
4864
4865
4866
4867
4868
4869
4870
4871
4872
4873
4874
4875
4876
4877
4878
4879
4880
4881
4882
4883
)
;
}

solid
{
    type cellZone;
cellLabels      List<label>
1560
(
331
334
335
339
340
344
345
349
350
354
355
359
360
364
365
369
370
374
375
379
380
384
385
389
390
394
397
400
401
405
406
410
411
415
416
420
421
425
426
430
431
435
436
440
441
445
446
450
451
455
456
460
463
466
467
471
472
476
477
481
482
486
487
491
492
496
497
501
502
506
507
511
512
516
517
521
522
526
529
532
533
537
538
542
543
547
548
552
553
557
558
562
563
567
568
572
573
577
578
582
583
587
588
592
595
598
599
603
604
608
609
613
614
618
619
623
624
628
629
633
634
638
639
643
644
648
649
653
654
658
661
664
665
669
670
674
675
679
680
684
685
689
690
694
695
699
700
704
705
709
710
714
715
719
720
724
727
730
731
735
736
740
741
745
746
750
751
755
756
760
761
765
766
770
771
775
776
780
781
785
786
790
793
796
797
801
802
806
807
811
812
816
817
821
822
826
827
831
832
836
837
841
842
846
847
851
852
856
859
862
863
867
868
872
873
877
878
882
883
887
888
892
893
897
898
902
903
907
908
912
913
917
918
922
925
928
929
933
934
938
939
943
944
948
949
953
954
958
959
963
964
968
969
973
974
978
979
983
984
988
991
994
995
999
1000
1004
1005
1009
1010
1014
1015
1019
1020
1024
1025
1029
1030
1034
1035
1039
1040
1044
1045
1049
1050
1054
1057
1060
1061
1065
1066
1070
1071
1075
1076
1080
1081
1085
1086
1090
1091
1095
1096
1100
1101
1105
1106
1110
1111
1115
1116
1120
1123
1126
1127
1131
1132
1136
1137
1141
1142
1146
1147
1151
1152
1156
1157
1161
1162
1166
1167
1171
1172
1176
1177
1181
1182
1186
1189
1192
1193
1197
1198
1202
1203
1207
1208
1212
1213
1217
1218
1222
1223
1227
1228
1232
1233
1237
1238
1242
1243
1247
1248
1252
1255
1258
1259
1263
1264
1268
1269
1273
1274
1278
1279
1283
1284
1288
1289
1293
1294
1298
1299
1303
1304
1308
1309
1313
1314
1318
1321
1324
1325
1329
1330
1334
1335
1339
1340
1344
1345
1349
1350
1354
1355
1359
1360
1364
1365
1369
1370
1374
1375
1379
1380
1384
1387
1390
1391
1395
1396
1400
1401
1405
1406
1410
1411
1415
1416
1420
1421
1425
1426
1430
1431
1435
1436
1440
1441
1445
1446
1450
1453
1456
1457
1461
1462
1466
1467
1471
1472
1476
1477
1481
1482
1486
1487
1491
1492
1496
1497
1501
1502
1506
1507
1511
1512
1516
1519
1522
1523
1527
1528
1532
1533
1537
1538
1542
1543
1547
1548
1552
1553
1557
1558
1562
1563
1567
1568
1572
1573
1577
1578
1582
1585
1588
1589
1593
1594
1598
1599
1603
1604
1608
1609
1613
1614
1618
1619
1623
1624
1628
1629
1633
1634
1638
1639
1643
1644
1648
1651
1654
1655
1659
1660
1664
1665
1669
1670
1674
1675
1679
1680
1684
1685
1689
1690
1694
1695
1699
1700
1704
1705
1709
1710
1714
1717
1720
1721
1725
1726
1730
1731
1735
1736
1740
1741
1745
1746
1750
1751
1755
1756
1760
1761
1765
1766
1770
1771
1775
1776
1780
1783
1786
1787
1791
1792
1796
1797
1801
1802
1806
1807
1811
1812
1816
1817
1821
1822
1826
1827
1831
1832
1836
1837
1841
1842
1846
1849
1852
1853
1857
1858
1862
1863
1867
1868
1872
1873
1877
1878
1882
1883
1887
1888
1892
1893
1897
1898
1902
1903
1907
1908
1912
1915
1918
1919
1923
1924
1928
1929
1933
1934
1938
1939
1943
1944
1948
1949
1953
1954
1958
1959
1963
1964
1968
1969
1973
1974
1978
1981
1984
1985
1989
1990
1994
1995
1999
2000
2004
2005
2009
2010
2014
2015
2019
2020
2024
2025
2029
2030
2034
2035
2039
2040
2044
2047
2050
2051
2055
2056
2060
2061
2065
2066
2070
2071
2075
2076
2080
2081
2085
2086
2090
2091
2095
2096
2100
2101
2105
2106
2110
2113
2116
2117
2121
2122
2126
2127
2131
2132
2136
2137
2141
2142
2146
2147
2151
2152
2156
2157
2161
2162
2166
2167
2171
2172
2176
2179
2182
2183
2187
2188
2192
2193
2197
2198
2202
2203
2207
2208
2212
2213
2217
2218
2222
2223
2227
2228
2232
2233
2237
2238
2242
2245
2248
2249
2253
2254
2258
2259
2263
2264
2268
2269
2273
2274
2278
2279
2283
2284
2288
2289
2293
2294
2298
2299
2303
2304
2308
2311
2314
2315
2319
2320
2324
2325
2329
2330
2334
2335
2339
2340
2344
2345
2349
2350
2354
2355
2359
2360
2364
2365
2369
2370
2374
2377
2380
2381
2385
2386
2390
2391
2395
2396
2400
2401
2405
2406
2410
2411
2415
2416
2420
2421
2425
2426
2430
2431
2435
2436
2440
2443
2446
2447
2451
2452
2456
2457
2461
2462
2466
2467
2471
2472
2476
2477
2481
2482
2486
2487
2491
2492
2496
2497
2501
2502
2506
2509
2512
2513
2517
2518
2522
2523
2527
2528
2532
2533
2537
2538
2542
2543
2547
2548
2552
2553
2557
2558
2562
2563
2567
2568
2572
2575
2578
2579
2583
2584
2588
2589
2593
2594
2598
2599
2603
2604
2608
2609
2613
2614
2618
2619
2623
2624
2628
2629
2633
2634
2638
2641
2644
2645
2649
2650
2654
2655
2659
2660
2664
2665
2669
2670
2674
2675
2679
2680
2684
2685
2689
2690
2694
2695
2699
2700
2704
2707
2710
2711
2715
2716
2720
2721
2725
2726
2730
2731
2735
2736
2740
2741
2745
2746
2750
2751
2755
2756
2760
2761
2765
2766
2770
2773
2776
2777
2781
2782
2786
2787
2791
2792
2796
2797
2801
2802
2806
2807
2811
2812
2816
2817
2821
2822
2826
2827
2831
2832
2836
2839
2842
2843
2847
2848
2852
2853
2857
2858
2862
2863
2867
2868
2872
2873
2877
2878
2882
2883
2887
2888
2892
2893
2897
2898
2902
2905
2908
2909
2913
2914
2918
2919
2923
2924
2928
2929
2933
2934
2938
2939
2943
2944
2948
2949
2953
2954
2958
2959
2963
2964
2968
2971
2974
2975
2979
2980
2984
2985
2989
2990
2994
2995
2999
3000
3004
3005
3009
3010
3014
3015
3019
3020
3024
3025
3029
3030
3034
3037
3040
3041
3045
3046
3050
3051
3055
3056
3060
3061
3065
3066
3070
3071
3075
3076
3080
3081
3085
3086
3090
3091
3095
3096
3100
3103
3106
3107
3111
3112
3116
3117
3121
3122
3126
3127
3131
3132
3136
3137
3141
3142
3146
3147
3151
3152
3156
3157
3161
3162
3166
3169
3172
3173
3177
3178
3182
3183
3187
3188
3192
3193
3197
3198
3202
3203
3207
3208
3212
3213
3217
3218
3222
3223
3227
3228
3232
3235
3238
3239
3243
3244
3248
3249
3253
3254
3258
3259
3263
3264
3268
3269
3273
3274
3278
3279
3283
3284
3288
3289
3293
3294
3298
3301
3304
3305
3309
3310
3314
3315
3319
3320
3324
3325
3329
3330
3334
3335
3339
3340
3344
3345
3349
3350
3354
3355
3359
3360
3364
3367
3370
3371
3375
3376
3380
3381
3385
3386
3390
3391
3395
3396
3400
3401
3405
3406
3410
3411
3415
3416
3420
3421
3425
3426
3430
3433
3436
3437
3441
3442
3446
3447
3451
3452
3456
3457
3461
3462
3466
3467
3471
3472
3476
3477
3481
3482
3486
3487
3491
3492
3496
3499
3502
3503
3507
3508
3512
3513
3517
3518
3522
3523
3527
3528
3532
3533
3537
3538
3542
3543
3547
3548
3552
3553
3557
3558
3562
3565
3568
3569
3573
3574
3578
3579
3583
3584
3588
3589
3593
3594
3598
3599
3603
3604
3608
3609
3613
3614
3618
3619
3623
3624
3628
3631
3634
3635
3639
3640
3644
3645
3649
3650
3654
3655
3659
3660
3664
3665
3669
3670
3674
3675
3679
3680
3684
3685
3689
3690
3694
3697
3700
3701
3705
3706
3710
3711
3715
3716
3720
3721
3725
3726
3730
3731
3735
3736
3740
3741
3745
3746
3750
3751
3755
3756
3760
3763
3766
3767
3771
3772
3776
3777
3781
3782
3786
3787
3791
3792
3796
3797
3801
3802
3806
3807
3811
3812
3816
3817
3821
3822
3826
3829
3832
3833
3837
3838
3842
3843
3847
3848
3852
3853
3857
3858
3862
3863
3867
3868
3872
3873
3877
3878
3882
3883
3887
3888
3892
3895
3898
3899
3903
3904
3908
3909
3913
3914
3918
3919
3923
3924
3928
3929
3933
3934
3938
3939
3943
3944
3948
3949
3953
3954
3958
3961
3964
3965
3969
3970
3974
3975
3979
3980
3984
3985
3989
3990
3994
3995
3999
4000
4004
4005
4009
4010
4014
4015
4019
4020
4024
4027
4030
4031
4035
4036
4040
4041
4045
4046
4050
4051
4055
4056
4060
4061
4065
4066
4070
4071
4075
4076
4080
4081
4085
4086
4090
4093
4096
4097
4101
4102
4106
4107
4111
4112
4116
4117
4121
4122
4126
4127
4131
4132
4136
4137
4141
4142
4146
4147
4151
4152
4156
4159
4162
4163
4167
4168
4172
4173
4177
4178
4182
4183
4187
4188
4192
4193
4197
4198
4202
4203
4207
4208
4212
4213
4217
4218
4222
4225
4228
4229
4233
4234
4238
4239
4243
4244
4248
4249
4253
4254
4258
4259
4263
4264
4268
4269
4273
4274
4278
4279
4283
4284
4288
);})